  52  52   0   0
  0.3090676E+02  0.1533600E-08  0.5112000E-09  0.2050000E-08  0.0000000E+00
  1.000000000000000E-004
  CAR 
 opt-3                                   
      7.70344715     -9.74176391  301     -0.03956186      1.00000000
     -9.742  0.0000E+00  0.0000E+00
     -9.684  0.0000E+00  0.0000E+00
     -9.625  0.0000E+00  0.0000E+00
     -9.567  0.0000E+00  0.0000E+00
     -9.509  0.0000E+00  0.0000E+00
     -9.451  0.0000E+00  0.0000E+00
     -9.393  0.0000E+00  0.0000E+00
     -9.335  0.0000E+00  0.0000E+00
     -9.277  0.1827E-14  0.1062E-15
     -9.218  0.7332E-12  0.4274E-13
     -9.160  0.1519E-09  0.8874E-11
     -9.102  0.1630E-07  0.9567E-09
     -9.044  0.9114E-06  0.5395E-07
     -8.986  0.2675E-04  0.1609E-05
     -8.928  0.4162E-03  0.2581E-04
     -8.870  0.3480E-02  0.2282E-03
     -8.811  0.1593E-01  0.1154E-02
     -8.753  0.4131E-01  0.3557E-02
     -8.695  0.6699E-01  0.7452E-02
     -8.637  0.8734E-01  0.1253E-01
     -8.579  0.1126E+00  0.1908E-01
     -8.521  0.1180E+00  0.2594E-01
     -8.462  0.8339E-01  0.3079E-01
     -8.404  0.4947E-01  0.3367E-01
     -8.346  0.4146E-01  0.3608E-01
     -8.288  0.5268E-01  0.3914E-01
     -8.230  0.9012E-01  0.4438E-01
     -8.172  0.1425E+00  0.5267E-01
     -8.114  0.1841E+00  0.6337E-01
     -8.055  0.1944E+00  0.7468E-01
     -7.997  0.1603E+00  0.8400E-01
     -7.939  0.1159E+00  0.9074E-01
     -7.881  0.9915E-01  0.9650E-01
     -7.823  0.1288E+00  0.1040E+00
     -7.765  0.1868E+00  0.1149E+00
     -7.706  0.2000E+00  0.1265E+00
     -7.648  0.1672E+00  0.1362E+00
     -7.590  0.1466E+00  0.1447E+00
     -7.532  0.1245E+00  0.1520E+00
     -7.474  0.1071E+00  0.1582E+00
     -7.416  0.1590E+00  0.1674E+00
     -7.358  0.2419E+00  0.1815E+00
     -7.299  0.2441E+00  0.1957E+00
     -7.241  0.1807E+00  0.2062E+00
     -7.183  0.1413E+00  0.2144E+00
     -7.125  0.1369E+00  0.2224E+00
     -7.067  0.1432E+00  0.2307E+00
     -7.009  0.1795E+00  0.2412E+00
     -6.951  0.2545E+00  0.2560E+00
     -6.892  0.3016E+00  0.2735E+00
     -6.834  0.2822E+00  0.2899E+00
     -6.776  0.2332E+00  0.3035E+00
     -6.718  0.1969E+00  0.3149E+00
     -6.660  0.2214E+00  0.3278E+00
     -6.602  0.3105E+00  0.3458E+00
     -6.543  0.3716E+00  0.3675E+00
     -6.485  0.3414E+00  0.3873E+00
     -6.427  0.2805E+00  0.4036E+00
     -6.369  0.2340E+00  0.4172E+00
     -6.311  0.2009E+00  0.4289E+00
     -6.253  0.2024E+00  0.4407E+00
     -6.195  0.2405E+00  0.4547E+00
     -6.136  0.3155E+00  0.4730E+00
     -6.078  0.4088E+00  0.4968E+00
     -6.020  0.4567E+00  0.5233E+00
     -5.962  0.4483E+00  0.5494E+00
     -5.904  0.4342E+00  0.5747E+00
     -5.846  0.4392E+00  0.6002E+00
     -5.788  0.4775E+00  0.6280E+00
     -5.729  0.5455E+00  0.6597E+00
     -5.671  0.5735E+00  0.6930E+00
     -5.613  0.5084E+00  0.7226E+00
     -5.555  0.4146E+00  0.7467E+00
     -5.497  0.3502E+00  0.7671E+00
     -5.439  0.3066E+00  0.7849E+00
     -5.380  0.2633E+00  0.8002E+00
     -5.322  0.2207E+00  0.8130E+00
     -5.264  0.2271E+00  0.8262E+00
     -5.206  0.3341E+00  0.8457E+00
     -5.148  0.5219E+00  0.8760E+00
     -5.090  0.6884E+00  0.9161E+00
     -5.032  0.7152E+00  0.9576E+00
     -4.973  0.6104E+00  0.9931E+00
     -4.915  0.5042E+00  0.1022E+01
     -4.857  0.5143E+00  0.1052E+01
     -4.799  0.6397E+00  0.1090E+01
     -4.741  0.8073E+00  0.1137E+01
     -4.683  0.1004E+01  0.1195E+01
     -4.625  0.1185E+01  0.1264E+01
     -4.566  0.1226E+01  0.1335E+01
     -4.508  0.1214E+01  0.1406E+01
     -4.450  0.1359E+01  0.1485E+01
     -4.392  0.1568E+01  0.1576E+01
     -4.334  0.1631E+01  0.1671E+01
     -4.276  0.1661E+01  0.1767E+01
     -4.217  0.1827E+01  0.1874E+01
     -4.159  0.2108E+01  0.1996E+01
     -4.101  0.2459E+01  0.2139E+01
     -4.043  0.2904E+01  0.2308E+01
     -3.985  0.3406E+01  0.2506E+01
     -3.927  0.3684E+01  0.2720E+01
     -3.869  0.3540E+01  0.2926E+01
     -3.810  0.3282E+01  0.3117E+01
     -3.752  0.3269E+01  0.3307E+01
     -3.694  0.3308E+01  0.3499E+01
     -3.636  0.3200E+01  0.3686E+01
     -3.578  0.3162E+01  0.3869E+01
     -3.520  0.3254E+01  0.4059E+01
     -3.461  0.3356E+01  0.4254E+01
     -3.403  0.3536E+01  0.4459E+01
     -3.345  0.3850E+01  0.4683E+01
     -3.287  0.4170E+01  0.4926E+01
     -3.229  0.4388E+01  0.5181E+01
     -3.171  0.4499E+01  0.5443E+01
     -3.113  0.4527E+01  0.5706E+01
     -3.054  0.4469E+01  0.5966E+01
     -2.996  0.4375E+01  0.6220E+01
     -2.938  0.4410E+01  0.6476E+01
     -2.880  0.4728E+01  0.6751E+01
     -2.822  0.5383E+01  0.7064E+01
     -2.764  0.6213E+01  0.7426E+01
     -2.706  0.6712E+01  0.7816E+01
     -2.647  0.6552E+01  0.8197E+01
     -2.589  0.6044E+01  0.8548E+01
     -2.531  0.5618E+01  0.8875E+01
     -2.473  0.5352E+01  0.9186E+01
     -2.415  0.5359E+01  0.9498E+01
     -2.357  0.5923E+01  0.9842E+01
     -2.298  0.6738E+01  0.1023E+02
     -2.240  0.6958E+01  0.1064E+02
     -2.182  0.6383E+01  0.1101E+02
     -2.124  0.5797E+01  0.1135E+02
     -2.066  0.5870E+01  0.1169E+02
     -2.008  0.6466E+01  0.1206E+02
     -1.950  0.7051E+01  0.1247E+02
     -1.891  0.7309E+01  0.1290E+02
     -1.833  0.7365E+01  0.1333E+02
     -1.775  0.7527E+01  0.1377E+02
     -1.717  0.7792E+01  0.1422E+02
     -1.659  0.7887E+01  0.1468E+02
     -1.601  0.7706E+01  0.1513E+02
     -1.543  0.7157E+01  0.1554E+02
     -1.484  0.5907E+01  0.1588E+02
     -1.426  0.4029E+01  0.1612E+02
     -1.368  0.2363E+01  0.1626E+02
     -1.310  0.1435E+01  0.1634E+02
     -1.252  0.1042E+01  0.1640E+02
     -1.194  0.8939E+00  0.1645E+02
     -1.135  0.8818E+00  0.1650E+02
     -1.077  0.9493E+00  0.1656E+02
     -1.019  0.9438E+00  0.1661E+02
     -0.961  0.7877E+00  0.1666E+02
     -0.903  0.6324E+00  0.1670E+02
     -0.845  0.6319E+00  0.1673E+02
     -0.787  0.6989E+00  0.1677E+02
     -0.728  0.6516E+00  0.1681E+02
     -0.670  0.4769E+00  0.1684E+02
     -0.612  0.3091E+00  0.1686E+02
     -0.554  0.2690E+00  0.1687E+02
     -0.496  0.3418E+00  0.1689E+02
     -0.438  0.4142E+00  0.1692E+02
     -0.380  0.4865E+00  0.1695E+02
     -0.321  0.5990E+00  0.1698E+02
     -0.263  0.6599E+00  0.1702E+02
     -0.205  0.6394E+00  0.1706E+02
     -0.147  0.6278E+00  0.1709E+02
     -0.089  0.6512E+00  0.1713E+02
     -0.031  0.6230E+00  0.1717E+02
      0.028  0.5037E+00  0.1720E+02
      0.086  0.3548E+00  0.1722E+02
      0.144  0.2930E+00  0.1723E+02
      0.202  0.4067E+00  0.1726E+02
      0.260  0.6235E+00  0.1729E+02
      0.318  0.7476E+00  0.1734E+02
      0.376  0.7054E+00  0.1738E+02
      0.435  0.5968E+00  0.1741E+02
      0.493  0.4868E+00  0.1744E+02
      0.551  0.3703E+00  0.1746E+02
      0.609  0.2849E+00  0.1748E+02
      0.667  0.3201E+00  0.1750E+02
      0.725  0.4560E+00  0.1752E+02
      0.784  0.5487E+00  0.1756E+02
      0.842  0.5301E+00  0.1759E+02
      0.900  0.4506E+00  0.1761E+02
      0.958  0.3770E+00  0.1763E+02
      1.016  0.3383E+00  0.1765E+02
      1.074  0.3502E+00  0.1768E+02
      1.132  0.4036E+00  0.1770E+02
      1.191  0.4343E+00  0.1772E+02
      1.249  0.4167E+00  0.1775E+02
      1.307  0.4442E+00  0.1777E+02
      1.365  0.5546E+00  0.1781E+02
      1.423  0.6145E+00  0.1784E+02
      1.481  0.5993E+00  0.1788E+02
      1.539  0.6453E+00  0.1791E+02
      1.598  0.7027E+00  0.1796E+02
      1.656  0.6174E+00  0.1799E+02
      1.714  0.4435E+00  0.1802E+02
      1.772  0.3187E+00  0.1804E+02
      1.830  0.2684E+00  0.1805E+02
      1.888  0.2684E+00  0.1807E+02
      1.947  0.3251E+00  0.1809E+02
      2.005  0.4457E+00  0.1811E+02
      2.063  0.5598E+00  0.1814E+02
      2.121  0.5787E+00  0.1818E+02
      2.179  0.5139E+00  0.1821E+02
      2.237  0.4307E+00  0.1823E+02
      2.295  0.3870E+00  0.1825E+02
      2.354  0.3934E+00  0.1828E+02
      2.412  0.4152E+00  0.1830E+02
      2.470  0.4092E+00  0.1833E+02
      2.528  0.3991E+00  0.1835E+02
      2.586  0.3924E+00  0.1837E+02
      2.644  0.3790E+00  0.1839E+02
      2.702  0.4091E+00  0.1842E+02
      2.761  0.4711E+00  0.1845E+02
      2.819  0.4754E+00  0.1847E+02
      2.877  0.4193E+00  0.1850E+02
      2.935  0.3894E+00  0.1852E+02
      2.993  0.4015E+00  0.1854E+02
      3.051  0.3982E+00  0.1857E+02
      3.110  0.3668E+00  0.1859E+02
      3.168  0.3470E+00  0.1861E+02
      3.226  0.3758E+00  0.1863E+02
      3.284  0.4922E+00  0.1866E+02
      3.342  0.6690E+00  0.1870E+02
      3.400  0.7589E+00  0.1874E+02
      3.458  0.7182E+00  0.1878E+02
      3.517  0.6542E+00  0.1882E+02
      3.575  0.5951E+00  0.1886E+02
      3.633  0.5561E+00  0.1889E+02
      3.691  0.5980E+00  0.1892E+02
      3.749  0.6373E+00  0.1896E+02
      3.807  0.5728E+00  0.1899E+02
      3.866  0.4815E+00  0.1902E+02
      3.924  0.4701E+00  0.1905E+02
      3.982  0.5375E+00  0.1908E+02
      4.040  0.5986E+00  0.1911E+02
      4.098  0.6345E+00  0.1915E+02
      4.156  0.7116E+00  0.1919E+02
      4.214  0.8284E+00  0.1924E+02
      4.273  0.8833E+00  0.1929E+02
      4.331  0.7881E+00  0.1934E+02
      4.389  0.6434E+00  0.1938E+02
      4.447  0.6219E+00  0.1941E+02
      4.505  0.6623E+00  0.1945E+02
      4.563  0.6322E+00  0.1949E+02
      4.621  0.5719E+00  0.1952E+02
      4.680  0.5464E+00  0.1955E+02
      4.738  0.5690E+00  0.1959E+02
      4.796  0.6580E+00  0.1962E+02
      4.854  0.8546E+00  0.1967E+02
      4.912  0.1109E+01  0.1974E+02
      4.970  0.1183E+01  0.1981E+02
      5.029  0.9716E+00  0.1986E+02
      5.087  0.6604E+00  0.1990E+02
      5.145  0.4294E+00  0.1993E+02
      5.203  0.3453E+00  0.1995E+02
      5.261  0.3781E+00  0.1997E+02
      5.319  0.4475E+00  0.1999E+02
      5.377  0.5470E+00  0.2003E+02
      5.436  0.6612E+00  0.2006E+02
      5.494  0.7171E+00  0.2011E+02
      5.552  0.7023E+00  0.2015E+02
      5.610  0.6943E+00  0.2019E+02
      5.668  0.7582E+00  0.2023E+02
      5.726  0.8499E+00  0.2028E+02
      5.784  0.8669E+00  0.2033E+02
      5.843  0.7837E+00  0.2038E+02
      5.901  0.6983E+00  0.2042E+02
      5.959  0.6567E+00  0.2046E+02
      6.017  0.6005E+00  0.2049E+02
      6.075  0.5044E+00  0.2052E+02
      6.133  0.4220E+00  0.2054E+02
      6.192  0.3989E+00  0.2057E+02
      6.250  0.3707E+00  0.2059E+02
      6.308  0.2578E+00  0.2060E+02
      6.366  0.1212E+00  0.2061E+02
      6.424  0.6033E-01  0.2061E+02
      6.482  0.7268E-01  0.2062E+02
      6.540  0.9701E-01  0.2062E+02
      6.599  0.9935E-01  0.2063E+02
      6.657  0.8861E-01  0.2064E+02
      6.715  0.7743E-01  0.2064E+02
      6.773  0.5471E-01  0.2064E+02
      6.831  0.2397E-01  0.2064E+02
      6.889  0.5784E-02  0.2065E+02
      6.947  0.7411E-03  0.2065E+02
      7.006  0.4981E-04  0.2065E+02
      7.064  0.1745E-05  0.2065E+02
      7.122  0.3176E-07  0.2065E+02
      7.180  0.2990E-09  0.2065E+02
      7.238  0.1452E-11  0.2065E+02
      7.296  0.3634E-14  0.2065E+02
      7.355  0.0000E+00  0.2065E+02
      7.413  0.0000E+00  0.2065E+02
      7.471  0.0000E+00  0.2065E+02
      7.529  0.0000E+00  0.2065E+02
      7.587  0.0000E+00  0.2065E+02
      7.645  0.0000E+00  0.2065E+02
      7.703  0.0000E+00  0.2065E+02
