 running on   16 total cores
 distrk:  each k-point on   16 cores,    1 groups
 distr:  one band on    4 cores,    4 groups
 using from now: INCAR     
 vasp.5.4.4.18Apr17-6-g9f103f2a35 (build Feb 10 2023 18:07:56) complex          
  
 POSCAR found type information on POSCAR  Cu H 
 POSCAR found :  2 types and      52 ions
 scaLAPACK will be used

 ----------------------------------------------------------------------------- 
|                                                                             |
|  ADVICE TO THIS USER RUNNING 'VASP/VAMP'   (HEAR YOUR MASTER'S VOICE ...):  |
|                                                                             |
|      You enforced a specific xc-type in the INCAR file,                     |
|      a different type was found on the POTCAR file                          |
|          I HOPE YOU KNOW, WHAT YOU ARE  DOING                               |
|                                                                             |
 ----------------------------------------------------------------------------- 

 LDA part: xc-table for Pade appr. of Perdew
 POSCAR found type information on POSCAR  Cu H 
 POSCAR found :  2 types and      52 ions
 POSCAR, INCAR and KPOINTS ok, starting setup
 FFT: planning ...
 WAVECAR not read
 entering main loop
       N       E                     dE             d eps       ncg     rms          rms(c)
DAV:   1     0.475397602048E+04    0.47540E+04   -0.19242E+05  5120   0.173E+03
DAV:   2     0.456912482038E+03   -0.42971E+04   -0.41545E+04  5120   0.419E+02
DAV:   3    -0.152757271002E+03   -0.60967E+03   -0.55839E+03  5200   0.207E+02
DAV:   4    -0.191707223664E+03   -0.38950E+02   -0.37503E+02  5808   0.698E+01
DAV:   5    -0.192947820977E+03   -0.12406E+01   -0.12308E+01  6160   0.105E+01    0.474E+01
RMM:   6    -0.175816807104E+03    0.17131E+02   -0.43732E+02  5130   0.939E+01    0.269E+01
RMM:   7    -0.158632250633E+03    0.17185E+02   -0.74741E+01  5124   0.432E+01    0.452E+00
RMM:   8    -0.158590454209E+03    0.41796E-01   -0.34500E+00  5214   0.676E+00    0.491E+00
RMM:   9    -0.158169513272E+03    0.42094E+00   -0.98698E-01  5133   0.376E+00    0.213E+00
RMM:  10    -0.158120978699E+03    0.48535E-01   -0.17908E-01  5344   0.137E+00    0.128E+00
RMM:  11    -0.158078253109E+03    0.42726E-01   -0.97620E-02  5120   0.112E+00    0.436E-01
RMM:  12    -0.158066104325E+03    0.12149E-01   -0.25570E-02  5157   0.595E-01    0.362E-01
RMM:  13    -0.158060410803E+03    0.56935E-02   -0.10628E-02  5141   0.416E-01    0.165E-01
RMM:  14    -0.158055321940E+03    0.50889E-02   -0.45105E-03  5125   0.212E-01    0.121E-01
RMM:  15    -0.158054127204E+03    0.11947E-02   -0.12295E-03  5152   0.112E-01    0.916E-02
RMM:  16    -0.158053874355E+03    0.25285E-03   -0.12938E-03  5128   0.807E-02    0.516E-02
RMM:  17    -0.158054546653E+03   -0.67230E-03   -0.32409E-04  5140   0.525E-02    0.360E-02
RMM:  18    -0.158055663350E+03   -0.11167E-02   -0.19872E-04  5120   0.316E-02    0.208E-02
RMM:  19    -0.158056340877E+03   -0.67753E-03   -0.14917E-04  5123   0.290E-02    0.187E-02
RMM:  20    -0.158056560990E+03   -0.22011E-03   -0.50801E-05  5126   0.172E-02    0.817E-03
RMM:  21    -0.158056791208E+03   -0.23022E-03   -0.22390E-05  5136   0.122E-02    0.978E-03
RMM:  22    -0.158057026975E+03   -0.23577E-03   -0.28913E-05  5138   0.994E-03    0.517E-03
RMM:  23    -0.158057176115E+03   -0.14914E-03   -0.12009E-05  5135   0.788E-03    0.392E-03
RMM:  24    -0.158057289631E+03   -0.11352E-03   -0.36787E-06  5144   0.565E-03    0.377E-03
RMM:  25    -0.158057461321E+03   -0.17169E-03   -0.63647E-06  5121   0.465E-03    0.188E-03
RMM:  26    -0.158057533570E+03   -0.72248E-04   -0.35107E-06  5121   0.372E-03    0.189E-03
RMM:  27    -0.158057549958E+03   -0.16389E-04   -0.62871E-07  5134   0.155E-03    0.144E-03
RMM:  28    -0.158057563185E+03   -0.13226E-04   -0.67894E-07  5128   0.158E-03    0.381E-04
RMM:  29    -0.158057565547E+03   -0.23617E-05   -0.13291E-07  5122   0.635E-04
   1 F= -.15805757E+03 E0= -.15801153E+03  d E =-.158058E+03
quench:  g(F)=  0.000E+00 g(S)=  0.000E+00 dE (1.order)= 0.000E+00
 bond charge predicted
       N       E                     dE             d eps       ncg     rms          rms(c)
DAV:   1    -0.158057550109E+03    0.13076E-04   -0.56830E-03  5296   0.129E-01    0.411E-03
RMM:   2    -0.158057556938E+03   -0.68293E-05   -0.67208E-05  5164   0.313E-02    0.373E-03
RMM:   3    -0.158057557916E+03   -0.97747E-06   -0.11786E-05  7088   0.855E-03    0.338E-03
RMM:   4    -0.158057557877E+03    0.38810E-07   -0.78982E-08  5312   0.922E-04    0.289E-03
RMM:   5    -0.158057557929E+03   -0.52023E-07   -0.17922E-07  5162   0.142E-03
   2 F= -.15805756E+03 E0= -.15801152E+03  d E =0.761751E-05
quench:  g(F)=  0.000E+00 g(S)=  0.000E+00 dE (1.order)= 0.000E+00
 bond charge predicted
       N       E                     dE             d eps       ncg     rms          rms(c)
DAV:   1    -0.158057546269E+03    0.11608E-04   -0.11372E-02  5296   0.182E-01    0.565E-03
RMM:   2    -0.158057559678E+03   -0.13409E-04   -0.13920E-04  5134   0.449E-02    0.491E-03
RMM:   3    -0.158057561677E+03   -0.19987E-05   -0.24304E-05  7027   0.126E-02    0.511E-03
RMM:   4    -0.158057561517E+03    0.15940E-06   -0.36215E-07  5373   0.166E-03    0.452E-03
RMM:   5    -0.158057561337E+03    0.18053E-06   -0.23546E-07  5161   0.153E-03
   3 F= -.15805756E+03 E0= -.15801152E+03  d E =-.340775E-05
quench:  g(F)=  0.000E+00 g(S)=  0.000E+00 dE (1.order)= 0.000E+00
 bond charge predicted
       N       E                     dE             d eps       ncg     rms          rms(c)
DAV:   1    -0.158057557093E+03    0.44245E-05   -0.11390E-02  5280   0.184E-01    0.550E-03
RMM:   2    -0.158057570674E+03   -0.13581E-04   -0.14052E-04  5130   0.443E-02    0.532E-03
RMM:   3    -0.158057572656E+03   -0.19819E-05   -0.24993E-05  7075   0.125E-02    0.533E-03
RMM:   4    -0.158057572466E+03    0.19005E-06   -0.38190E-07  5308   0.160E-03    0.475E-03
RMM:   5    -0.158057572225E+03    0.24113E-06   -0.32709E-07  5153   0.182E-03
   4 F= -.15805757E+03 E0= -.15801153E+03  d E =-.108882E-04
quench:  g(F)=  0.000E+00 g(S)=  0.000E+00 dE (1.order)= 0.000E+00
 bond charge predicted
       N       E                     dE             d eps       ncg     rms          rms(c)
DAV:   1    -0.158057546006E+03    0.26460E-04   -0.11359E-02  5312   0.186E-01    0.596E-03
RMM:   2    -0.158057560519E+03   -0.14513E-04   -0.14856E-04  5167   0.441E-02    0.579E-03
RMM:   3    -0.158057562652E+03   -0.21335E-05   -0.25937E-05  7035   0.130E-02    0.560E-03
RMM:   4    -0.158057562499E+03    0.15320E-06   -0.51692E-07  5338   0.183E-03    0.499E-03
RMM:   5    -0.158057562312E+03    0.18699E-06   -0.33013E-07  5152   0.189E-03
   5 F= -.15805756E+03 E0= -.15801152E+03  d E =0.991285E-05
quench:  g(F)=  0.000E+00 g(S)=  0.000E+00 dE (1.order)= 0.000E+00
 bond charge predicted
       N       E                     dE             d eps       ncg     rms          rms(c)
DAV:   1    -0.158057545254E+03    0.17245E-04   -0.11326E-02  5272   0.174E-01    0.596E-03
RMM:   2    -0.158057558495E+03   -0.13241E-04   -0.13508E-04  5142   0.413E-02    0.635E-03
RMM:   3    -0.158057560332E+03   -0.18371E-05   -0.24499E-05  6961   0.120E-02    0.545E-03
RMM:   4    -0.158057560160E+03    0.17224E-06   -0.15701E-07  5498   0.118E-03    0.492E-03
RMM:   5    -0.158057560003E+03    0.15766E-06   -0.50847E-07  5201   0.231E-03
   6 F= -.15805756E+03 E0= -.15801152E+03  d E =0.230959E-05
quench:  g(F)=  0.000E+00 g(S)=  0.000E+00 dE (1.order)= 0.000E+00
 bond charge predicted
       N       E                     dE             d eps       ncg     rms          rms(c)
DAV:   1    -0.158057555030E+03    0.51306E-05   -0.11390E-02  5232   0.175E-01    0.636E-03
RMM:   2    -0.158057567262E+03   -0.12232E-04   -0.12831E-04  5143   0.404E-02    0.667E-03
RMM:   3    -0.158057568874E+03   -0.16118E-05   -0.22748E-05  6740   0.119E-02    0.569E-03
RMM:   4    -0.158057568677E+03    0.19680E-06   -0.51322E-07  5675   0.160E-03    0.498E-03
RMM:   5    -0.158057568416E+03    0.26048E-06   -0.71557E-07  5347   0.247E-03
   7 F= -.15805757E+03 E0= -.15801154E+03  d E =-.841374E-05
quench:  g(F)=  0.000E+00 g(S)=  0.000E+00 dE (1.order)= 0.000E+00
 bond charge predicted
       N       E                     dE             d eps       ncg     rms          rms(c)
DAV:   1    -0.158057554020E+03    0.14657E-04   -0.11388E-02  5304   0.184E-01    0.713E-03
RMM:   2    -0.158057567807E+03   -0.13787E-04   -0.14511E-04  5130   0.436E-02    0.772E-03
RMM:   3    -0.158057569504E+03   -0.16965E-05   -0.26907E-05  6945   0.135E-02    0.606E-03
RMM:   4    -0.158057569262E+03    0.24162E-06   -0.24586E-07  5662   0.138E-03    0.539E-03
RMM:   5    -0.158057569006E+03    0.25629E-06   -0.10790E-06  5254   0.321E-03
   8 F= -.15805757E+03 E0= -.15801153E+03  d E =-.589353E-06
quench:  g(F)=  0.000E+00 g(S)=  0.000E+00 dE (1.order)= 0.000E+00
 bond charge predicted
       N       E                     dE             d eps       ncg     rms          rms(c)
DAV:   1    -0.158057541652E+03    0.27610E-04   -0.11316E-02  5248   0.182E-01    0.728E-03
RMM:   2    -0.158057556930E+03   -0.15278E-04   -0.15785E-04  5146   0.449E-02    0.893E-03
RMM:   3    -0.158057558572E+03   -0.16415E-05   -0.29442E-05  6928   0.139E-02    0.584E-03
RMM:   4    -0.158057558338E+03    0.23350E-06   -0.24084E-07  5924   0.134E-03    0.525E-03
RMM:   5    -0.158057558146E+03    0.19255E-06   -0.46368E-07  5155   0.236E-03
   9 F= -.15805756E+03 E0= -.15801152E+03  d E =0.108600E-04
quench:  g(F)=  0.000E+00 g(S)=  0.000E+00 dE (1.order)= 0.000E+00
 bond charge predicted
       N       E                     dE             d eps       ncg     rms          rms(c)
DAV:   1    -0.158057554621E+03    0.37171E-05   -0.11328E-02  5232   0.181E-01    0.609E-03
RMM:   2    -0.158057567904E+03   -0.13283E-04   -0.13811E-04  5155   0.432E-02    0.603E-03
RMM:   3    -0.158057569803E+03   -0.18985E-05   -0.24476E-05  6857   0.125E-02    0.551E-03
RMM:   4    -0.158057569607E+03    0.19575E-06   -0.64127E-07  5423   0.186E-03    0.481E-03
RMM:   5    -0.158057569307E+03    0.30015E-06   -0.44959E-07  5293   0.195E-03
  10 F= -.15805757E+03 E0= -.15801153E+03  d E =-.111612E-04
quench:  g(F)=  0.000E+00 g(S)=  0.000E+00 dE (1.order)= 0.000E+00
 bond charge predicted
       N       E                     dE             d eps       ncg     rms          rms(c)
DAV:   1    -0.158057541680E+03    0.27927E-04   -0.11355E-02  5288   0.188E-01    0.654E-03
RMM:   2    -0.158057556488E+03   -0.14808E-04   -0.15084E-04  5148   0.455E-02    0.690E-03
RMM:   3    -0.158057558512E+03   -0.20235E-05   -0.27915E-05  7025   0.138E-02    0.565E-03
RMM:   4    -0.158057558332E+03    0.17977E-06   -0.23486E-07  5462   0.147E-03    0.498E-03
RMM:   5    -0.158057558182E+03    0.15012E-06   -0.44439E-07  5154   0.225E-03
  11 F= -.15805756E+03 E0= -.15801152E+03  d E =0.111251E-04
quench:  g(F)=  0.000E+00 g(S)=  0.000E+00 dE (1.order)= 0.000E+00
 bond charge predicted
       N       E                     dE             d eps       ncg     rms          rms(c)
DAV:   1    -0.158057545855E+03    0.12477E-04   -0.11367E-02  5224   0.183E-01    0.584E-03
RMM:   2    -0.158057559773E+03   -0.13918E-04   -0.14394E-04  5135   0.449E-02    0.578E-03
RMM:   3    -0.158057561756E+03   -0.19827E-05   -0.25932E-05  7061   0.130E-02    0.524E-03
RMM:   4    -0.158057561564E+03    0.19200E-06   -0.15188E-07  5433   0.133E-03    0.466E-03
RMM:   5    -0.158057561356E+03    0.20777E-06   -0.30880E-07  5165   0.177E-03
  12 F= -.15805756E+03 E0= -.15801152E+03  d E =-.317459E-05
quench:  g(F)=  0.000E+00 g(S)=  0.000E+00 dE (1.order)= 0.000E+00
 bond charge predicted
       N       E                     dE             d eps       ncg     rms          rms(c)
DAV:   1    -0.158057557053E+03    0.45114E-05   -0.11391E-02  5216   0.184E-01    0.557E-03
RMM:   2    -0.158057570702E+03   -0.13649E-04   -0.14136E-04  5129   0.444E-02    0.547E-03
RMM:   3    -0.158057572679E+03   -0.19772E-05   -0.25160E-05  7070   0.126E-02    0.538E-03
RMM:   4    -0.158057572483E+03    0.19527E-06   -0.38294E-07  5307   0.157E-03    0.480E-03
RMM:   5    -0.158057572224E+03    0.25937E-06   -0.38164E-07  5156   0.198E-03
  13 F= -.15805757E+03 E0= -.15801153E+03  d E =-.108678E-04
quench:  g(F)=  0.000E+00 g(S)=  0.000E+00 dE (1.order)= 0.000E+00
 bond charge predicted
       N       E                     dE             d eps       ncg     rms          rms(c)
DAV:   1    -0.158057546012E+03    0.26472E-04   -0.11360E-02  5256   0.186E-01    0.602E-03
RMM:   2    -0.158057560582E+03   -0.14571E-04   -0.14901E-04  5166   0.442E-02    0.605E-03
RMM:   3    -0.158057562666E+03   -0.20832E-05   -0.26174E-05  7052   0.131E-02    0.563E-03
RMM:   4    -0.158057562506E+03    0.16010E-06   -0.39495E-07  5358   0.165E-03    0.503E-03
RMM:   5    -0.158057562322E+03    0.18306E-06   -0.38802E-07  5153   0.208E-03
  14 F= -.15805756E+03 E0= -.15801152E+03  d E =0.990163E-05
quench:  g(F)=  0.000E+00 g(S)=  0.000E+00 dE (1.order)= 0.000E+00
 bond charge predicted
       N       E                     dE             d eps       ncg     rms          rms(c)
DAV:   1    -0.158057544935E+03    0.17571E-04   -0.11324E-02  5240   0.174E-01    0.635E-03
RMM:   2    -0.158057558710E+03   -0.13775E-04   -0.14101E-04  5142   0.420E-02    0.756E-03
RMM:   3    -0.158057560370E+03   -0.16607E-05   -0.25799E-05  6954   0.125E-02    0.554E-03
WARNING in EDDRMM: call to ZHEGV failed, returncode =   6  3      4
RMM:   4    -0.158057560201E+03    0.16909E-06   -0.17415E-07  5624   0.118E-03    0.506E-03
RMM:   5    -0.158057560049E+03    0.15236E-06   -0.47059E-07  5169   0.234E-03
  15 F= -.15805756E+03 E0= -.15801152E+03  d E =0.227362E-05
quench:  g(F)=  0.000E+00 g(S)=  0.000E+00 dE (1.order)= 0.000E+00
 bond charge predicted
       N       E                     dE             d eps       ncg     rms          rms(c)
DAV:   1    -0.158057555041E+03    0.51600E-05   -0.11390E-02  5192   0.175E-01    0.638E-03
RMM:   2    -0.158057567284E+03   -0.12243E-04   -0.12841E-04  5144   0.404E-02    0.673E-03
RMM:   3    -0.158057568892E+03   -0.16080E-05   -0.22891E-05  6763   0.119E-02    0.570E-03
RMM:   4    -0.158057568682E+03    0.20981E-06   -0.39531E-07  5670   0.145E-03    0.498E-03
RMM:   5    -0.158057568402E+03    0.28091E-06   -0.74929E-07  5399   0.244E-03
  16 F= -.15805757E+03 E0= -.15801154E+03  d E =-.835274E-05
quench:  g(F)=  0.000E+00 g(S)=  0.000E+00 dE (1.order)= 0.000E+00
 bond charge predicted
       N       E                     dE             d eps       ncg     rms          rms(c)
DAV:   1    -0.158057554104E+03    0.14578E-04   -0.11388E-02  5280   0.184E-01    0.716E-03
RMM:   2    -0.158057567858E+03   -0.13754E-04   -0.14497E-04  5132   0.436E-02    0.775E-03
RMM:   3    -0.158057569544E+03   -0.16852E-05   -0.26868E-05  6940   0.135E-02    0.606E-03
RMM:   4    -0.158057569298E+03    0.24588E-06   -0.22486E-07  5666   0.136E-03    0.539E-03
RMM:   5    -0.158057569053E+03    0.24519E-06   -0.10817E-06  5248   0.324E-03
  17 F= -.15805757E+03 E0= -.15801153E+03  d E =-.651038E-06
quench:  g(F)=  0.000E+00 g(S)=  0.000E+00 dE (1.order)= 0.000E+00
 bond charge predicted
       N       E                     dE             d eps       ncg     rms          rms(c)
DAV:   1    -0.158057541650E+03    0.27647E-04   -0.11316E-02  5216   0.182E-01    0.732E-03
RMM:   2    -0.158057556967E+03   -0.15316E-04   -0.15820E-04  5145   0.449E-02    0.908E-03
RMM:   3    -0.158057558570E+03   -0.16030E-05   -0.29516E-05  6920   0.140E-02    0.585E-03
RMM:   4    -0.158057558336E+03    0.23365E-06   -0.24691E-07  5955   0.135E-03    0.528E-03
RMM:   5    -0.158057558141E+03    0.19546E-06   -0.46638E-07  5156   0.237E-03
  18 F= -.15805756E+03 E0= -.15801152E+03  d E =0.109120E-04
quench:  g(F)=  0.000E+00 g(S)=  0.000E+00 dE (1.order)= 0.000E+00
 bond charge predicted
       N       E                     dE             d eps       ncg     rms          rms(c)
DAV:   1    -0.158057554676E+03    0.36604E-05   -0.11329E-02  5184   0.181E-01    0.609E-03
RMM:   2    -0.158057567927E+03   -0.13252E-04   -0.13775E-04  5157   0.432E-02    0.605E-03
RMM:   3    -0.158057569813E+03   -0.18851E-05   -0.24389E-05  6856   0.125E-02    0.551E-03
RMM:   4    -0.158057569616E+03    0.19610E-06   -0.63418E-07  5417   0.185E-03    0.481E-03
RMM:   5    -0.158057569318E+03    0.29811E-06   -0.47205E-07  5284   0.202E-03
  19 F= -.15805757E+03 E0= -.15801153E+03  d E =-.111777E-04
quench:  g(F)=  0.000E+00 g(S)=  0.000E+00 dE (1.order)= 0.000E+00
 bond charge predicted
       N       E                     dE             d eps       ncg     rms          rms(c)
DAV:   1    -0.158057554176E+03    0.15441E-04   -0.59929E-03  5160   0.132E-01    0.652E-03
RMM:   2    -0.158057561607E+03   -0.74314E-05   -0.80664E-05  5126   0.314E-02    0.503E-03
RMM:   3    -0.158057562707E+03   -0.10997E-05   -0.13837E-05  6471   0.101E-02    0.493E-03
RMM:   4    -0.158057562464E+03    0.24273E-06   -0.56194E-07  5648   0.224E-03    0.298E-03
RMM:   5    -0.158057562484E+03   -0.19936E-07   -0.53704E-07  5164   0.247E-03
  20 F= -.15805756E+03 E0= -.15801153E+03  d E =0.683422E-05
quench:  g(F)=  0.000E+00 g(S)=  0.000E+00 dE (1.order)= 0.000E+00
 bond charge predicted
       N       E                     dE             d eps       ncg     rms          rms(c)
DAV:   1    -0.158057560381E+03    0.20829E-05   -0.62083E-04  5664   0.337E-02    0.647E-03
RMM:   2    -0.158057561347E+03   -0.96594E-06   -0.18001E-05  5219   0.974E-03    0.361E-03
RMM:   3    -0.158057561365E+03   -0.18117E-07   -0.28178E-06  5207   0.462E-03    0.349E-03
RMM:   4    -0.158057561207E+03    0.15843E-06   -0.90186E-07  5170   0.329E-03    0.859E-04
RMM:   5    -0.158057561213E+03   -0.56316E-08   -0.12845E-07  5374   0.107E-03
  21 F= -.15805756E+03 E0= -.15801152E+03  d E =0.127158E-05
quench:  g(F)=  0.000E+00 g(S)=  0.000E+00 dE (1.order)= 0.000E+00
 bond charge predicted
       N       E                     dE             d eps       ncg     rms          rms(c)
DAV:   1    -0.158057565991E+03   -0.47839E-05   -0.62322E-04  5328   0.283E-02    0.564E-03
RMM:   2    -0.158057566880E+03   -0.88940E-06   -0.15876E-05  5217   0.824E-03    0.331E-03
RMM:   3    -0.158057566978E+03   -0.97774E-07   -0.26254E-06  5177   0.429E-03    0.348E-03
RMM:   4    -0.158057566775E+03    0.20300E-06   -0.74661E-07  5168   0.294E-03    0.103E-03
RMM:   5    -0.158057566769E+03    0.55879E-08   -0.13057E-07  5164   0.117E-03
  22 F= -.15805757E+03 E0= -.15801152E+03  d E =-.555682E-05
quench:  g(F)=  0.000E+00 g(S)=  0.000E+00 dE (1.order)= 0.000E+00
 bond charge predicted
       N       E                     dE             d eps       ncg     rms          rms(c)
DAV:   1    -0.158057560992E+03    0.57828E-05   -0.61965E-04  5416   0.285E-02    0.589E-03
RMM:   2    -0.158057562219E+03   -0.12270E-05   -0.16641E-05  5189   0.877E-03    0.336E-03
RMM:   3    -0.158057562501E+03   -0.28136E-06   -0.26096E-06  5194   0.448E-03    0.356E-03
RMM:   4    -0.158057562433E+03    0.67550E-07   -0.78926E-07  5153   0.319E-03    0.106E-03
RMM:   5    -0.158057562425E+03    0.82073E-08   -0.13944E-07  5187   0.123E-03
  23 F= -.15805756E+03 E0= -.15801153E+03  d E =0.434462E-05
quench:  g(F)=  0.000E+00 g(S)=  0.000E+00 dE (1.order)= 0.000E+00
 bond charge predicted
       N       E                     dE             d eps       ncg     rms          rms(c)
DAV:   1    -0.158057560672E+03    0.17612E-05   -0.62098E-04  5400   0.285E-02    0.668E-03
RMM:   2    -0.158057561384E+03   -0.71216E-06   -0.16126E-05  5201   0.877E-03    0.377E-03
RMM:   3    -0.158057561426E+03   -0.41953E-07   -0.29727E-06  5158   0.519E-03    0.407E-03
RMM:   4    -0.158057561194E+03    0.23236E-06   -0.10984E-06  5162   0.360E-03    0.708E-04
RMM:   5    -0.158057561201E+03   -0.77562E-08   -0.14942E-07  5531   0.104E-03
  24 F= -.15805756E+03 E0= -.15801152E+03  d E =0.122350E-05
quench:  g(F)=  0.000E+00 g(S)=  0.000E+00 dE (1.order)= 0.000E+00
 bond charge predicted
       N       E                     dE             d eps       ncg     rms          rms(c)
DAV:   1    -0.158057565974E+03   -0.47808E-05   -0.62318E-04  5296   0.282E-02    0.565E-03
RMM:   2    -0.158057566886E+03   -0.91117E-06   -0.16020E-05  5219   0.826E-03    0.333E-03
RMM:   3    -0.158057566983E+03   -0.97090E-07   -0.26196E-06  5176   0.433E-03    0.351E-03
RMM:   4    -0.158057566774E+03    0.20828E-06   -0.73581E-07  5170   0.289E-03    0.102E-03
RMM:   5    -0.158057566770E+03    0.42928E-08   -0.13074E-07  5156   0.117E-03
  25 F= -.15805757E+03 E0= -.15801152E+03  d E =-.556873E-05
quench:  g(F)=  0.000E+00 g(S)=  0.000E+00 dE (1.order)= 0.000E+00
 bond charge predicted
       N       E                     dE             d eps       ncg     rms          rms(c)
DAV:   1    -0.158057563750E+03    0.30238E-05   -0.61820E-04  5136   0.277E-02    0.570E-03
RMM:   2    -0.158057564891E+03   -0.11409E-05   -0.16891E-05  5360   0.813E-03    0.326E-03
RMM:   3    -0.158057565144E+03   -0.25250E-06   -0.22555E-06  5175   0.412E-03    0.349E-03
RMM:   4    -0.158057565020E+03    0.12400E-06   -0.70759E-07  5177   0.299E-03    0.992E-04
RMM:   5    -0.158057565019E+03    0.98953E-09   -0.13492E-07  5144   0.123E-03
  26 F= -.15805757E+03 E0= -.15801152E+03  d E =0.175109E-05
quench:  g(F)=  0.000E+00 g(S)=  0.000E+00 dE (1.order)= 0.000E+00
 bond charge predicted
       N       E                     dE             d eps       ncg     rms          rms(c)
DAV:   1    -0.158057559905E+03    0.51153E-05   -0.61955E-04  5256   0.290E-02    0.659E-03
RMM:   2    -0.158057560670E+03   -0.76514E-06   -0.15788E-05  5205   0.895E-03    0.379E-03
RMM:   3    -0.158057560745E+03   -0.75233E-07   -0.28819E-06  5155   0.526E-03    0.417E-03
RMM:   4    -0.158057560531E+03    0.21442E-06   -0.10972E-06  5161   0.361E-03    0.666E-04
WARNING in EDDRMM: call to ZHEGV failed, returncode =   6  3      2
RMM:   5    -0.158057560542E+03   -0.11642E-07   -0.14701E-07  5601   0.101E-03
  27 F= -.15805756E+03 E0= -.15801152E+03  d E =0.447677E-05
quench:  g(F)=  0.000E+00 g(S)=  0.000E+00 dE (1.order)= 0.000E+00
 bond charge predicted
       N       E                     dE             d eps       ncg     rms          rms(c)
DAV:   1    -0.158057565194E+03   -0.46637E-05   -0.62367E-04  5160   0.288E-02    0.567E-03
RMM:   2    -0.158057566065E+03   -0.87090E-06   -0.15388E-05  5236   0.832E-03    0.335E-03
RMM:   3    -0.158057566161E+03   -0.96101E-07   -0.26245E-06  5171   0.454E-03    0.368E-03
RMM:   4    -0.158057565934E+03    0.22753E-06   -0.73367E-07  5158   0.295E-03    0.868E-04
RMM:   5    -0.158057565938E+03   -0.43947E-08   -0.12209E-07  5185   0.106E-03
  28 F= -.15805757E+03 E0= -.15801152E+03  d E =-.539595E-05
quench:  g(F)=  0.000E+00 g(S)=  0.000E+00 dE (1.order)= 0.000E+00
 bond charge predicted
       N       E                     dE             d eps       ncg     rms          rms(c)
DAV:   1    -0.158057563629E+03    0.23044E-05   -0.61815E-04  5328   0.288E-02    0.576E-03
RMM:   2    -0.158057564833E+03   -0.12033E-05   -0.16348E-05  5183   0.881E-03    0.329E-03
RMM:   3    -0.158057565076E+03   -0.24366E-06   -0.25782E-06  5202   0.443E-03    0.354E-03
RMM:   4    -0.158057565004E+03    0.72469E-07   -0.80502E-07  5155   0.316E-03    0.970E-04
RMM:   5    -0.158057564995E+03    0.84692E-08   -0.12842E-07  5219   0.115E-03
  29 F= -.15805756E+03 E0= -.15801152E+03  d E =0.942789E-06
quench:  g(F)=  0.000E+00 g(S)=  0.000E+00 dE (1.order)= 0.000E+00
 bond charge predicted
       N       E                     dE             d eps       ncg     rms          rms(c)
DAV:   1    -0.158057559897E+03    0.51071E-05   -0.61938E-04  5256   0.288E-02    0.659E-03
RMM:   2    -0.158057560667E+03   -0.77076E-06   -0.15852E-05  5216   0.893E-03    0.377E-03
RMM:   3    -0.158057560744E+03   -0.76776E-07   -0.28581E-06  5158   0.520E-03    0.417E-03
RMM:   4    -0.158057560529E+03    0.21528E-06   -0.10978E-06  5163   0.361E-03    0.695E-04
RMM:   5    -0.158057560540E+03   -0.11263E-07   -0.14671E-07  5557   0.103E-03
  30 F= -.15805756E+03 E0= -.15801152E+03  d E =0.445513E-05
quench:  g(F)=  0.000E+00 g(S)=  0.000E+00 dE (1.order)= 0.000E+00
 bond charge predicted
       N       E                     dE             d eps       ncg     rms          rms(c)
DAV:   1    -0.158057565205E+03   -0.46756E-05   -0.62370E-04  5160   0.289E-02    0.567E-03
RMM:   2    -0.158057566075E+03   -0.87006E-06   -0.15378E-05  5234   0.833E-03    0.335E-03
RMM:   3    -0.158057566169E+03   -0.94267E-07   -0.26271E-06  5171   0.455E-03    0.367E-03
RMM:   4    -0.158057565942E+03    0.22666E-06   -0.73646E-07  5157   0.295E-03    0.862E-04
RMM:   5    -0.158057565947E+03   -0.46712E-08   -0.12191E-07  5195   0.106E-03
  31 F= -.15805757E+03 E0= -.15801152E+03  d E =-.540666E-05
quench:  g(F)=  0.000E+00 g(S)=  0.000E+00 dE (1.order)= 0.000E+00
