<?xml version="1.0" encoding="ISO-8859-1"?>
<modeling>
 <generator>
  <i name="program" type="string">vasp </i>
  <i name="version" type="string">5.4.4.18Apr17-6-g9f103f2a35  </i>
  <i name="subversion" type="string">(build Feb 10 2023 18:07:56) complex            parallel </i>
  <i name="platform" type="string">LinuxIFC </i>
  <i name="date" type="string">2023 04 08 </i>
  <i name="time" type="string">07:56:38 </i>
 </generator>
 <incar>
  <i type="string" name="SYSTEM"> opt-3</i>
  <i type="int" name="ISTART">     0</i>
  <i type="string" name="PREC">n</i>
  <i type="string" name="ALGO"> F</i>
  <i type="int" name="ICHARG">     2</i>
  <i type="int" name="NELM">   400</i>
  <i type="int" name="NELMIN">     5</i>
  <i type="int" name="IBRION">     3</i>
  <i name="EDIFF">      0.00001000</i>
  <i name="EDIFFG">     -0.00000000</i>
  <i type="int" name="NSW">    31</i>
  <i type="int" name="ISYM">     0</i>
  <i name="ENCUT">    400.00000000</i>
  <i name="POTIM">      0.00000000</i>
  <i type="string" name="LREAL"> Auto</i>
  <i type="int" name="ISMEAR">     0</i>
  <i name="SIGMA">      0.10000000</i>
  <i type="int" name="NWRITE">     3</i>
  <i type="logical" name="LWAVE"> F  </i>
  <i type="logical" name="LCHARG"> F  </i>
  <v type="int" name="KPOINT_BSE">    -1     0     0     0</v>
  <i type="int" name="NELM">   400</i>
  <i type="string" name="GGA"> RP</i>
 </incar>
 <structure name="primitive_cell" >
  <crystal>
   <varray name="basis" >
    <v>      15.33600000       0.00000000       0.00000000 </v>
    <v>       0.00000000       5.11200000       0.00000000 </v>
    <v>       0.00000000       0.00000000      20.50000000 </v>
   </varray>
   <i name="volume">   1607.15145600 </i>
   <varray name="rec_basis" >
    <v>       0.06520605       0.00000000       0.00000000 </v>
    <v>       0.00000000       0.19561815       0.00000000 </v>
    <v>       0.00000000       0.00000000       0.04878049 </v>
   </varray>
  </crystal>
  <varray name="positions" >
   <v>       0.08333333       0.30868544       0.45401780 </v>
   <v>      -0.08333333       0.30868544       0.45401780 </v>
   <v>       0.00000000       0.05868545      -0.45781806 </v>
   <v>       0.08333333      -0.19131455       0.45401780 </v>
   <v>       0.16666667       0.05868545      -0.45781806 </v>
   <v>       0.00000000      -0.44131454      -0.45781806 </v>
   <v>       0.25000000       0.30868544       0.45401780 </v>
   <v>       0.16666667      -0.44131454      -0.45781806 </v>
   <v>      -0.08333333      -0.19131455       0.45401780 </v>
   <v>       0.25000000      -0.19131455       0.45401780 </v>
   <v>       0.08457947       0.30914522      -0.36552856 </v>
   <v>       0.33333333       0.05868545      -0.45781806 </v>
   <v>      -0.16666667       0.05868545      -0.45781806 </v>
   <v>       0.33333333      -0.44131454      -0.45781806 </v>
   <v>      -0.16666667      -0.44131454      -0.45781806 </v>
   <v>       0.08457977      -0.19085432      -0.36552855 </v>
   <v>      -0.08454269       0.30896623      -0.36559152 </v>
   <v>       0.25432145       0.30889088      -0.36350925 </v>
   <v>      -0.25000000       0.30868544       0.45401780 </v>
   <v>       0.41666667       0.30868544       0.45401780 </v>
   <v>      -0.08454238      -0.19103319      -0.36559151 </v>
   <v>       0.25432196      -0.19110873      -0.36350922 </v>
   <v>      -0.25000000      -0.19131455       0.45401780 </v>
   <v>       0.41666667      -0.19131455       0.45401780 </v>
   <v>       0.00072760       0.05870912      -0.27745244 </v>
   <v>       0.00072709      -0.44129093      -0.27745294 </v>
   <v>       0.17111314       0.05916198      -0.27699617 </v>
   <v>       0.17111286      -0.44083791      -0.27699648 </v>
   <v>       0.41912143       0.30830269      -0.36881315 </v>
   <v>      -0.25415642       0.30884295      -0.36310813 </v>
   <v>      -0.33333333       0.05868545      -0.45781806 </v>
   <v>      -0.33333333      -0.44131454      -0.45781806 </v>
   <v>      -0.50000000       0.05868545      -0.45781806 </v>
   <v>      -0.50000000      -0.44131454      -0.45781806 </v>
   <v>       0.41912224      -0.19169739      -0.36881312 </v>
   <v>      -0.16923373      -0.44154007      -0.27718950 </v>
   <v>      -0.16923286       0.05846006      -0.27718896 </v>
   <v>      -0.25415578      -0.19115625      -0.36310823 </v>
   <v>       0.34506149       0.05889436      -0.27461519 </v>
   <v>       0.34506081      -0.44110555      -0.27461529 </v>
   <v>      -0.41666667       0.30868544       0.45401780 </v>
   <v>      -0.41666667      -0.19131455       0.45401780 </v>
   <v>      -0.41867673       0.30871628      -0.36839370 </v>
   <v>       0.43512494       0.06040119      -0.22143841 </v>
   <v>       0.43512411      -0.43959784      -0.22143868 </v>
   <v>       0.49772274       0.31023490      -0.25305627 </v>
   <v>      -0.34748453       0.05970512      -0.27173276 </v>
   <v>      -0.34748526      -0.44029443      -0.27173297 </v>
   <v>      -0.41867575      -0.19128336      -0.36839400 </v>
   <v>       0.49772278      -0.18976554      -0.25305667 </v>
   <v>      -0.39103959       0.30998292      -0.22644718 </v>
   <v>      -0.39104048      -0.19001691      -0.22644712 </v>
  </varray>
 </structure>
 <varray name="primitive_index" >
  <v type="int" >        1 </v>
  <v type="int" >        6 </v>
  <v type="int" >       13 </v>
  <v type="int" >        7 </v>
  <v type="int" >       14 </v>
  <v type="int" >       19 </v>
  <v type="int" >        2 </v>
  <v type="int" >       20 </v>
  <v type="int" >       12 </v>
  <v type="int" >        8 </v>
  <v type="int" >       25 </v>
  <v type="int" >       15 </v>
  <v type="int" >       18 </v>
  <v type="int" >       21 </v>
  <v type="int" >       24 </v>
  <v type="int" >       31 </v>
  <v type="int" >       30 </v>
  <v type="int" >       26 </v>
  <v type="int" >        5 </v>
  <v type="int" >        3 </v>
  <v type="int" >       36 </v>
  <v type="int" >       32 </v>
  <v type="int" >       11 </v>
  <v type="int" >        9 </v>
  <v type="int" >       37 </v>
  <v type="int" >       43 </v>
  <v type="int" >       38 </v>
  <v type="int" >       44 </v>
  <v type="int" >       27 </v>
  <v type="int" >       29 </v>
  <v type="int" >       17 </v>
  <v type="int" >       23 </v>
  <v type="int" >       16 </v>
  <v type="int" >       22 </v>
  <v type="int" >       33 </v>
  <v type="int" >       48 </v>
  <v type="int" >       42 </v>
  <v type="int" >       35 </v>
  <v type="int" >       39 </v>
  <v type="int" >       45 </v>
  <v type="int" >        4 </v>
  <v type="int" >       10 </v>
  <v type="int" >       28 </v>
  <v type="int" >       49 </v>
  <v type="int" >       50 </v>
  <v type="int" >       40 </v>
  <v type="int" >       41 </v>
  <v type="int" >       47 </v>
  <v type="int" >       34 </v>
  <v type="int" >       46 </v>
  <v type="int" >       52 </v>
  <v type="int" >       51 </v>
 </varray>
 <kpoints>
  <generation param="Gamma">
   <v type="int" name="divisions">       2        6        1 </v>
   <v name="usershift">      0.00000000       0.00000000       0.00000000 </v>
   <v name="genvec1">      0.50000000       0.00000000       0.00000000 </v>
   <v name="genvec2">      0.00000000       0.16666667       0.00000000 </v>
   <v name="genvec3">      0.00000000       0.00000000       1.00000000 </v>
   <v name="shift">      0.00000000       0.00000000       0.00000000 </v>
  </generation>
  <varray name="kpointlist" >
   <v>       0.00000000       0.00000000       0.00000000 </v>
   <v>       0.50000000       0.00000000       0.00000000 </v>
   <v>       0.00000000       0.16666667       0.00000000 </v>
   <v>       0.50000000       0.16666667       0.00000000 </v>
   <v>       0.00000000       0.33333333       0.00000000 </v>
   <v>       0.50000000       0.33333333       0.00000000 </v>
   <v>       0.00000000       0.50000000       0.00000000 </v>
   <v>       0.50000000       0.50000000       0.00000000 </v>
  </varray>
  <varray name="weights" >
   <v>       0.08333333 </v>
   <v>       0.08333333 </v>
   <v>       0.16666667 </v>
   <v>       0.16666667 </v>
   <v>       0.16666667 </v>
   <v>       0.16666667 </v>
   <v>       0.08333333 </v>
   <v>       0.08333333 </v>
  </varray>
 </kpoints>
 <parameters>
  <separator name="general" >
   <i type="string" name="SYSTEM">opt-3</i>
   <i type="logical" name="LCOMPAT"> F  </i>
  </separator>
  <separator name="electronic" >
   <i type="string" name="PREC">n</i>
   <i name="ENMAX">    400.00000000</i>
   <i name="ENAUG">    586.98000000</i>
   <i name="EDIFF">      0.00001000</i>
   <i type="int" name="IALGO">    68</i>
   <i type="int" name="IWAVPR">    11</i>
   <i type="int" name="NBANDS">   320</i>
   <i name="NELECT">    532.00000000</i>
   <i type="int" name="TURBO">     0</i>
   <i type="int" name="IRESTART">     0</i>
   <i type="int" name="NREBOOT">     0</i>
   <i type="int" name="NMIN">     0</i>
   <i name="EREF">      0.00000000</i>
   <separator name="electronic smearing" >
    <i type="int" name="ISMEAR">     0</i>
    <i name="SIGMA">      0.10000000</i>
    <i name="KSPACING">      0.50000000</i>
    <i type="logical" name="KGAMMA"> T  </i>
   </separator>
   <separator name="electronic projectors" >
    <i type="logical" name="LREAL"> T  </i>
    <v name="ROPT">     -0.00050000     -0.00050000</v>
    <i type="int" name="LMAXPAW">  -100</i>
    <i type="int" name="LMAXMIX">     2</i>
    <i type="logical" name="NLSPLINE"> F  </i>
   </separator>
   <separator name="electronic startup" >
    <i type="int" name="ISTART">     0</i>
    <i type="int" name="ICHARG">     2</i>
    <i type="int" name="INIWAV">     1</i>
   </separator>
   <separator name="electronic spin" >
    <i type="int" name="ISPIN">     1</i>
    <i type="logical" name="LNONCOLLINEAR"> F  </i>
    <v name="MAGMOM">      1.00000000      1.00000000      1.00000000      1.00000000      1.00000000      1.00000000      1.00000000      1.00000000      1.00000000      1.00000000      1.00000000      1.00000000      1.00000000      1.00000000      1.00000000      1.00000000      1.00000000      1.00000000      1.00000000      1.00000000
      1.00000000      1.00000000      1.00000000      1.00000000      1.00000000      1.00000000      1.00000000      1.00000000      1.00000000      1.00000000      1.00000000      1.00000000      1.00000000      1.00000000      1.00000000      1.00000000      1.00000000      1.00000000      1.00000000      1.00000000
      1.00000000      1.00000000      1.00000000      1.00000000      1.00000000      1.00000000      1.00000000      1.00000000      1.00000000      1.00000000      1.00000000      1.00000000</v>
    <i name="NUPDOWN">     -1.00000000</i>
    <i type="logical" name="LSORBIT"> F  </i>
    <v name="SAXIS">      0.00000000      0.00000000      1.00000000</v>
    <i type="logical" name="LSPIRAL"> F  </i>
    <v name="QSPIRAL">      0.00000000      0.00000000      0.00000000</v>
    <i type="logical" name="LZEROZ"> F  </i>
   </separator>
   <separator name="electronic exchange-correlation" >
    <i type="logical" name="LASPH"> F  </i>
    <i type="logical" name="LMETAGGA"> F  </i>
   </separator>
   <separator name="electronic convergence" >
    <i type="int" name="NELM">   400</i>
    <i type="int" name="NELMDL">    -5</i>
    <i type="int" name="NELMIN">     5</i>
    <i name="ENINI">    400.00000000</i>
    <separator name="electronic convergence detail" >
     <i type="logical" name="LDIAG"> T  </i>
     <i type="logical" name="LSUBROT"> F  </i>
     <i name="WEIMIN">      0.00100000</i>
     <i name="EBREAK">      0.00000000</i>
     <i name="DEPER">      0.30000000</i>
     <i type="int" name="NRMM">     4</i>
     <i name="TIME">      0.40000000</i>
    </separator>
   </separator>
   <separator name="electronic mixer" >
    <i name="AMIX">      0.40000000</i>
    <i name="BMIX">      1.00000000</i>
    <i name="AMIN">      0.10000000</i>
    <i name="AMIX_MAG">      1.60000000</i>
    <i name="BMIX_MAG">      1.00000000</i>
    <separator name="electronic mixer details" >
     <i type="int" name="IMIX">     4</i>
     <i type="logical" name="MIXFIRST"> F  </i>
     <i type="int" name="MAXMIX">   -45</i>
     <i name="WC">    100.00000000</i>
     <i type="int" name="INIMIX">     1</i>
     <i type="int" name="MIXPRE">     1</i>
     <i type="int" name="MREMOVE">     5</i>
    </separator>
   </separator>
   <separator name="electronic dipolcorrection" >
    <i type="logical" name="LDIPOL"> F  </i>
    <i type="logical" name="LMONO"> F  </i>
    <i type="int" name="IDIPOL">     0</i>
    <i name="EPSILON">      1.00000000</i>
    <v name="DIPOL">   -100.00000000   -100.00000000   -100.00000000</v>
    <i name="EFIELD">      0.00000000</i>
   </separator>
  </separator>
  <separator name="grids" >
   <i type="int" name="NGX">    80</i>
   <i type="int" name="NGY">    28</i>
   <i type="int" name="NGZ">   100</i>
   <i type="int" name="NGXF">   160</i>
   <i type="int" name="NGYF">    56</i>
   <i type="int" name="NGZF">   200</i>
   <i type="logical" name="ADDGRID"> F  </i>
  </separator>
  <separator name="ionic" >
   <i type="int" name="NSW">    31</i>
   <i type="int" name="IBRION">     3</i>
   <i type="int" name="MDALGO">     0</i>
   <i type="int" name="ISIF">     2</i>
   <i name="PSTRESS">      0.00000000</i>
   <i name="EDIFFG">     -0.00000000</i>
   <i type="int" name="NFREE">     0</i>
   <i name="POTIM">      0.00000000</i>
   <i name="SMASS">     -3.00000000</i>
   <i name="SCALEE">      1.00000000</i>
  </separator>
  <separator name="ionic md" >
   <i name="TEBEG">      0.00010000</i>
   <i name="TEEND">      0.00010000</i>
   <i type="int" name="NBLOCK">     1</i>
   <i type="int" name="KBLOCK">    31</i>
   <i type="int" name="NPACO">   256</i>
   <i name="APACO">     16.00000000</i>
  </separator>
  <separator name="symmetry" >
   <i type="int" name="ISYM">     0</i>
   <i name="SYMPREC">      0.00001000</i>
  </separator>
  <separator name="dos" >
   <i type="int" name="LORBIT">     0</i>
   <v name="RWIGS">     -1.00000000     -1.00000000</v>
   <i type="int" name="NEDOS">   301</i>
   <i name="EMIN">     10.00000000</i>
   <i name="EMAX">    -10.00000000</i>
   <i name="EFERMI">      0.00000000</i>
  </separator>
  <separator name="writing" >
   <i type="int" name="NWRITE">     3</i>
   <i type="logical" name="LWAVE"> F  </i>
   <i type="logical" name="LDOWNSAMPLE"> F  </i>
   <i type="logical" name="LCHARG"> F  </i>
   <i type="logical" name="LPARD"> F  </i>
   <i type="logical" name="LVTOT"> F  </i>
   <i type="logical" name="LVHAR"> F  </i>
   <i type="logical" name="LELF"> F  </i>
   <i type="logical" name="LOPTICS"> F  </i>
   <v name="STM">      0.00000000      0.00000000      0.00000000      0.00000000      0.00000000      0.00000000      0.00000000</v>
  </separator>
  <separator name="performance" >
   <i type="int" name="NPAR">     4</i>
   <i type="int" name="NSIM">     4</i>
   <i type="int" name="NBLK">    -1</i>
   <i type="logical" name="LPLANE"> T  </i>
   <i type="logical" name="LSCALAPACK"> T  </i>
   <i type="logical" name="LSCAAWARE"> F  </i>
   <i type="logical" name="LSCALU"> F  </i>
   <i type="logical" name="LASYNC"> F  </i>
   <i type="logical" name="LORBITALREAL"> F  </i>
  </separator>
  <separator name="miscellaneous" >
   <i type="int" name="IDIOT">     3</i>
   <i type="int" name="ISPECIAL">     0</i>
   <i type="logical" name="LMUSIC"> F  </i>
   <v name="POMASS">     63.54600000      1.00000000</v>
   <v name="DARWINR">      0.00000000      0.00000000</v>
   <v name="DARWINV">      1.00000000      1.00000000</v>
   <i type="logical" name="LCORR"> T  </i>
  </separator>
  <i type="logical" name="GGA_COMPAT"> T  </i>
  <i type="logical" name="LBERRY"> F  </i>
  <i type="int" name="ICORELEVEL">     0</i>
  <i type="logical" name="LDAU"> F  </i>
  <i type="int" name="I_CONSTRAINED_M">     0</i>
  <separator name="electronic exchange-correlation" >
   <i type="string" name="GGA">RP</i>
   <i type="int" name="VOSKOWN">     0</i>
   <i type="logical" name="LHFCALC"> F  </i>
   <i type="string" name="PRECFOCK"></i>
   <i type="logical" name="LSYMGRAD"> F  </i>
   <i type="logical" name="LHFONE"> F  </i>
   <i type="logical" name="LRHFCALC"> F  </i>
   <i type="logical" name="LTHOMAS"> F  </i>
   <i type="logical" name="LMODELHF"> F  </i>
   <i name="ENCUT4O">     -1.00000000</i>
   <i type="int" name="EXXOEP">     0</i>
   <i type="int" name="FOURORBIT">     0</i>
   <i name="AEXX">      0.00000000</i>
   <i name="HFALPHA">      0.00000000</i>
   <i name="MCALPHA">      0.00000000</i>
   <i name="ALDAX">      1.00000000</i>
   <i name="AGGAX">      1.00000000</i>
   <i name="ALDAC">      1.00000000</i>
   <i name="AGGAC">      1.00000000</i>
   <i type="int" name="NKREDX">     1</i>
   <i type="int" name="NKREDY">     1</i>
   <i type="int" name="NKREDZ">     1</i>
   <i type="logical" name="SHIFTRED"> F  </i>
   <i type="logical" name="ODDONLY"> F  </i>
   <i type="logical" name="EVENONLY"> F  </i>
   <i type="int" name="LMAXFOCK">     0</i>
   <i type="int" name="NMAXFOCKAE">     0</i>
   <i type="logical" name="LFOCKAEDFT"> F  </i>
   <i name="HFSCREEN">      0.00000000</i>
   <i name="HFSCREENC">      0.00000000</i>
   <i type="int" name="NBANDSGWLOW">     0</i>
  </separator>
  <separator name="vdW DFT" >
   <i type="logical" name="LUSE_VDW"> F  </i>
   <i name="Zab_VDW">     -0.84910000</i>
   <i name="PARAM1">      0.12340000</i>
   <i name="PARAM2">      1.00000000</i>
   <i name="PARAM3">      0.00000000</i>
  </separator>
  <separator name="model GW" >
   <i type="int" name="MODEL_GW">     0</i>
   <i name="MODEL_EPS0">     18.54405526</i>
   <i name="MODEL_ALPHA">      1.00000000</i>
  </separator>
  <separator name="linear response parameters" >
   <i type="logical" name="LEPSILON"> F  </i>
   <i type="logical" name="LRPA"> F  </i>
   <i type="logical" name="LNABLA"> F  </i>
   <i type="logical" name="LVEL"> F  </i>
   <i type="int" name="KINTER">     0</i>
   <i name="CSHIFT">      0.10000000</i>
   <i name="OMEGAMAX">     -1.00000000</i>
   <i name="DEG_THRESHOLD">      0.00200000</i>
   <i name="RTIME">     -0.10000000</i>
   <i name="WPLASMAI">      0.00000000</i>
   <v name="DFIELD">      0.00000000      0.00000000      0.00000000</v>
   <v name="WPLASMA">      0.00000000      0.00000000      0.00000000      0.00000000      0.00000000      0.00000000      0.00000000      0.00000000      0.00000000</v>
  </separator>
  <separator name="orbital magnetization" >
   <i type="logical" name="NUCIND"> F  </i>
   <v name="MAGPOS">      0.00000000      0.00000000      0.00000000</v>
   <i type="logical" name="LNICSALL"> T  </i>
   <i type="logical" name="ORBITALMAG"> F  </i>
   <i type="logical" name="LMAGBLOCH"> F  </i>
   <i type="logical" name="LCHIMAG"> F  </i>
   <i type="logical" name="LGAUGE"> T  </i>
   <i type="int" name="MAGATOM">     0</i>
   <v name="MAGDIPOL">      0.00000000      0.00000000      0.00000000</v>
   <v name="AVECCONST">      0.00000000      0.00000000      0.00000000</v>
  </separator>
  <separator name="response functions" >
   <i type="logical" name="LADDER"> F  </i>
   <i type="logical" name="LRPAFORCE"> F  </i>
   <i type="logical" name="LFXC"> F  </i>
   <i type="logical" name="LHARTREE"> T  </i>
   <i type="int" name="IBSE">     0</i>
   <v type="int" name="KPOINT">    -1     0     0     0</v>
   <i type="logical" name="LTCTE"> F  </i>
   <i type="logical" name="LTETE"> F  </i>
   <i type="logical" name="LTRIPLET"> F  </i>
   <i type="logical" name="LFXCEPS"> F  </i>
   <i type="logical" name="LFXHEG"> F  </i>
   <i type="int" name="NATURALO">     2</i>
   <i type="logical" name="L2ORDER"> F  </i>
   <i type="logical" name="LMP2LT"> F  </i>
   <i type="logical" name="LUSEW"> F  </i>
   <i name="ENCUTGW">     -2.00000000</i>
   <i name="ENCUTGWSOFT">     -2.00000000</i>
   <i name="ENCUTLF">     -1.00000000</i>
   <i type="int" name="LMAXMP2">    -1</i>
   <i name="SCISSOR">      0.00000000</i>
   <i type="int" name="NOMEGA">     0</i>
   <i type="int" name="NOMEGAR">     0</i>
   <i type="int" name="NBANDSGW">    -1</i>
   <i type="int" name="NBANDSO">    -1</i>
   <i type="int" name="NBANDSV">    -1</i>
   <i type="int" name="NELM">   400</i>
   <i type="int" name="NELMHF">     1</i>
   <i type="int" name="DIM">     3</i>
   <i type="int" name="ANTIRES">     0</i>
   <i name="OMEGAMAX">    -30.00000000</i>
   <i name="OMEGAMIN">    -30.00000000</i>
   <i name="OMEGATL">   -200.00000000</i>
   <i type="int" name="OMEGAGRID">   140</i>
   <i name="CSHIFT">     -0.10000000</i>
   <i type="logical" name="SELFENERGY"> F  </i>
   <i type="logical" name="LSPECTRAL"> F  </i>
   <i type="logical" name="LSPECTRALGW"> F  </i>
   <i type="logical" name="LSINGLES"> F  </i>
   <i type="logical" name="LFERMIGW"> F  </i>
   <i type="logical" name="ODDONLYGW"> F  </i>
   <i type="logical" name="EVENONLYGW"> F  </i>
   <i type="int" name="NKREDLFX">     1</i>
   <i type="int" name="NKREDLFY">     1</i>
   <i type="int" name="NKREDLFZ">     1</i>
   <i type="int" name="MAXMEM">  2800</i>
   <i type="int" name="TELESCOPE">     0</i>
   <i type="int" name="TAUPAR">     1</i>
   <i type="int" name="OMEGAPAR">    -1</i>
   <i name="LAMBDA">      1.00000000</i>
  </separator>
  <separator name="External order field" >
   <i name="OFIELD_KAPPA">      0.00000000</i>
   <v name="OFIELD_K">      0.00000000      0.00000000      0.00000000</v>
   <i name="OFIELD_Q6_NEAR">      0.00000000</i>
   <i name="OFIELD_Q6_FAR">      0.00000000</i>
   <i name="OFIELD_A">      0.00000000</i>
  </separator>
  <separator name="solvation model" >
   <i type="logical" name="LSOL"> F  </i>
  </separator>
 </parameters>
 <atominfo>
  <atoms>      52 </atoms>
  <types>       2 </types>
  <array name="atoms" >
   <dimension dim="1">ion</dimension>
   <field type="string">element</field>
   <field type="int">atomtype</field>
   <set>
    <rc><c>Cu</c><c>   1</c></rc>
    <rc><c>Cu</c><c>   1</c></rc>
    <rc><c>Cu</c><c>   1</c></rc>
    <rc><c>Cu</c><c>   1</c></rc>
    <rc><c>Cu</c><c>   1</c></rc>
    <rc><c>Cu</c><c>   1</c></rc>
    <rc><c>Cu</c><c>   1</c></rc>
    <rc><c>Cu</c><c>   1</c></rc>
    <rc><c>Cu</c><c>   1</c></rc>
    <rc><c>Cu</c><c>   1</c></rc>
    <rc><c>Cu</c><c>   1</c></rc>
    <rc><c>Cu</c><c>   1</c></rc>
    <rc><c>Cu</c><c>   1</c></rc>
    <rc><c>Cu</c><c>   1</c></rc>
    <rc><c>Cu</c><c>   1</c></rc>
    <rc><c>Cu</c><c>   1</c></rc>
    <rc><c>Cu</c><c>   1</c></rc>
    <rc><c>Cu</c><c>   1</c></rc>
    <rc><c>Cu</c><c>   1</c></rc>
    <rc><c>Cu</c><c>   1</c></rc>
    <rc><c>Cu</c><c>   1</c></rc>
    <rc><c>Cu</c><c>   1</c></rc>
    <rc><c>Cu</c><c>   1</c></rc>
    <rc><c>Cu</c><c>   1</c></rc>
    <rc><c>Cu</c><c>   1</c></rc>
    <rc><c>Cu</c><c>   1</c></rc>
    <rc><c>Cu</c><c>   1</c></rc>
    <rc><c>Cu</c><c>   1</c></rc>
    <rc><c>Cu</c><c>   1</c></rc>
    <rc><c>Cu</c><c>   1</c></rc>
    <rc><c>Cu</c><c>   1</c></rc>
    <rc><c>Cu</c><c>   1</c></rc>
    <rc><c>Cu</c><c>   1</c></rc>
    <rc><c>Cu</c><c>   1</c></rc>
    <rc><c>Cu</c><c>   1</c></rc>
    <rc><c>Cu</c><c>   1</c></rc>
    <rc><c>Cu</c><c>   1</c></rc>
    <rc><c>Cu</c><c>   1</c></rc>
    <rc><c>Cu</c><c>   1</c></rc>
    <rc><c>Cu</c><c>   1</c></rc>
    <rc><c>Cu</c><c>   1</c></rc>
    <rc><c>Cu</c><c>   1</c></rc>
    <rc><c>Cu</c><c>   1</c></rc>
    <rc><c>Cu</c><c>   1</c></rc>
    <rc><c>Cu</c><c>   1</c></rc>
    <rc><c>Cu</c><c>   1</c></rc>
    <rc><c>Cu</c><c>   1</c></rc>
    <rc><c>Cu</c><c>   1</c></rc>
    <rc><c>H </c><c>   2</c></rc>
    <rc><c>H </c><c>   2</c></rc>
    <rc><c>H </c><c>   2</c></rc>
    <rc><c>H </c><c>   2</c></rc>
   </set>
  </array>
  <array name="atomtypes" >
   <dimension dim="1">type</dimension>
   <field type="int">atomspertype</field>
   <field type="string">element</field>
   <field>mass</field>
   <field>valence</field>
   <field type="string">pseudopotential</field>
   <set>
    <rc><c>  48</c><c>Cu</c><c>     63.54600000</c><c>     11.00000000</c><c>  PAW_PBE Cu 22Jun2005                  </c></rc>
    <rc><c>   4</c><c>H </c><c>      1.00000000</c><c>      1.00000000</c><c>  PAW_PBE H 15Jun2001                   </c></rc>
   </set>
  </array>
 </atominfo>
 <structure name="initialpos" >
  <crystal>
   <varray name="basis" >
    <v>      15.33600000       0.00000000       0.00000000 </v>
    <v>       0.00000000       5.11200000       0.00000000 </v>
    <v>       0.00000000       0.00000000      20.50000000 </v>
   </varray>
   <i name="volume">   1607.15145600 </i>
   <varray name="rec_basis" >
    <v>       0.06520605       0.00000000       0.00000000 </v>
    <v>       0.00000000       0.19561815       0.00000000 </v>
    <v>       0.00000000       0.00000000       0.04878049 </v>
   </varray>
  </crystal>
  <varray name="positions" >
   <v>       0.08333333       0.30868544       0.45401780 </v>
   <v>       0.25000000       0.30868544       0.45401780 </v>
   <v>       0.41666667       0.30868544       0.45401780 </v>
   <v>       0.58333333       0.30868544       0.45401780 </v>
   <v>       0.75000000       0.30868544       0.45401780 </v>
   <v>       0.91666667       0.30868544       0.45401780 </v>
   <v>       0.08333333       0.80868545       0.45401780 </v>
   <v>       0.25000000       0.80868545       0.45401780 </v>
   <v>       0.41666667       0.80868545       0.45401780 </v>
   <v>       0.58333333       0.80868545       0.45401780 </v>
   <v>       0.75000000       0.80868545       0.45401780 </v>
   <v>       0.91666667       0.80868545       0.45401780 </v>
   <v>       0.00000000       0.05868545       0.54218194 </v>
   <v>       0.16666667       0.05868545       0.54218194 </v>
   <v>       0.33333333       0.05868545       0.54218194 </v>
   <v>       0.50000000       0.05868545       0.54218194 </v>
   <v>       0.66666667       0.05868545       0.54218194 </v>
   <v>       0.83333333       0.05868545       0.54218194 </v>
   <v>       0.00000000       0.55868546       0.54218194 </v>
   <v>       0.16666667       0.55868546       0.54218194 </v>
   <v>       0.33333333       0.55868546       0.54218194 </v>
   <v>       0.50000000       0.55868546       0.54218194 </v>
   <v>       0.66666667       0.55868546       0.54218194 </v>
   <v>       0.83333333       0.55868546       0.54218194 </v>
   <v>       0.08457947       0.30914522       0.63447144 </v>
   <v>       0.25432145       0.30889088       0.63649075 </v>
   <v>       0.41912143       0.30830269       0.63118685 </v>
   <v>       0.58132327       0.30871628       0.63160630 </v>
   <v>       0.74584358       0.30884295       0.63689187 </v>
   <v>       0.91545731       0.30896623       0.63440848 </v>
   <v>       0.08457977       0.80914568       0.63447145 </v>
   <v>       0.25432196       0.80889127       0.63649078 </v>
   <v>       0.41912224       0.80830261       0.63118688 </v>
   <v>       0.58132425       0.80871664       0.63160600 </v>
   <v>       0.74584422       0.80884375       0.63689177 </v>
   <v>       0.91545762       0.80896681       0.63440849 </v>
   <v>       0.00072760       0.05870912       0.72254756 </v>
   <v>       0.17111314       0.05916198       0.72300383 </v>
   <v>       0.34506149       0.05889436       0.72538481 </v>
   <v>       0.49772274       0.31023490       0.74694373 </v>
   <v>       0.65251547       0.05970512       0.72826724 </v>
   <v>       0.83076714       0.05846006       0.72281104 </v>
   <v>       0.00072709       0.55870907       0.72254706 </v>
   <v>       0.17111286       0.55916209       0.72300352 </v>
   <v>       0.34506081       0.55889445       0.72538471 </v>
   <v>       0.49772278       0.81023446       0.74694333 </v>
   <v>       0.65251474       0.55970557       0.72826703 </v>
   <v>       0.83076627       0.55845993       0.72281050 </v>
   <v>       0.43512494       0.06040119       0.77856159 </v>
   <v>       0.43512411       0.56040216       0.77856132 </v>
   <v>       0.60895952       0.80998309       0.77355288 </v>
   <v>       0.60896041       0.30998292       0.77355282 </v>
  </varray>
  <varray name="selective"  type="logical" >
   <v type="logical" >  F  F  F </v>
   <v type="logical" >  F  F  F </v>
   <v type="logical" >  F  F  F </v>
   <v type="logical" >  F  F  F </v>
   <v type="logical" >  F  F  F </v>
   <v type="logical" >  F  F  F </v>
   <v type="logical" >  F  F  F </v>
   <v type="logical" >  F  F  F </v>
   <v type="logical" >  F  F  F </v>
   <v type="logical" >  F  F  F </v>
   <v type="logical" >  F  F  F </v>
   <v type="logical" >  F  F  F </v>
   <v type="logical" >  F  F  F </v>
   <v type="logical" >  F  F  F </v>
   <v type="logical" >  F  F  F </v>
   <v type="logical" >  F  F  F </v>
   <v type="logical" >  F  F  F </v>
   <v type="logical" >  F  F  F </v>
   <v type="logical" >  F  F  F </v>
   <v type="logical" >  F  F  F </v>
   <v type="logical" >  F  F  F </v>
   <v type="logical" >  F  F  F </v>
   <v type="logical" >  F  F  F </v>
   <v type="logical" >  F  F  F </v>
   <v type="logical" >  T  T  T </v>
   <v type="logical" >  T  T  T </v>
   <v type="logical" >  T  T  T </v>
   <v type="logical" >  T  T  T </v>
   <v type="logical" >  T  T  T </v>
   <v type="logical" >  T  T  T </v>
   <v type="logical" >  T  T  T </v>
   <v type="logical" >  T  T  T </v>
   <v type="logical" >  T  T  T </v>
   <v type="logical" >  T  T  T </v>
   <v type="logical" >  T  T  T </v>
   <v type="logical" >  T  T  T </v>
   <v type="logical" >  T  T  T </v>
   <v type="logical" >  T  T  T </v>
   <v type="logical" >  T  T  T </v>
   <v type="logical" >  T  T  T </v>
   <v type="logical" >  T  T  T </v>
   <v type="logical" >  T  T  T </v>
   <v type="logical" >  T  T  T </v>
   <v type="logical" >  T  T  T </v>
   <v type="logical" >  T  T  T </v>
   <v type="logical" >  T  T  T </v>
   <v type="logical" >  T  T  T </v>
   <v type="logical" >  T  T  T </v>
   <v type="logical" >  T  T  T </v>
   <v type="logical" >  T  T  T </v>
   <v type="logical" >  T  T  T </v>
   <v type="logical" >  T  T  T </v>
  </varray>
  <nose>
   <v>      -3.00000000       0.00000000       0.00010000       0.00010000 </v>
  </nose>
 </structure>
 <calculation>
  <scstep>
   <time name="dav">   13.94   14.05</time>
   <time name="total">   14.03   14.13</time>
   <energy>
    <i name="alphaZ">   1059.59457262 </i>
    <i name="ewald"> 178314.96021806 </i>
    <i name="hartreedc">-242416.69880015 </i>
    <i name="XCdc">   2164.22673279 </i>
    <i name="pawpsdc">  58999.53565895 </i>
    <i name="pawaedc"> -64031.53117936 </i>
    <i name="eentropy">     -0.08340525 </i>
    <i name="bandstr">   3897.54532836 </i>
    <i name="atom">  66766.42689446 </i>
    <i name="e_fr_energy">   4753.97602048 </i>
    <i name="e_wo_entrp">   4754.05942572 </i>
    <i name="e_0_energy">   4754.01772310 </i>
   </energy>
  </scstep>
  <scstep>
   <time name="dav">   13.86   13.88</time>
   <time name="total">   13.86   13.88</time>
   <energy>
    <i name="e_fr_energy">    456.91248204 </i>
    <i name="e_wo_entrp">    457.02321248 </i>
    <i name="e_0_energy">    456.96784726 </i>
   </energy>
  </scstep>
  <scstep>
   <time name="dav">   14.30   14.32</time>
   <time name="total">   14.31   14.33</time>
   <energy>
    <i name="e_fr_energy">   -152.75727100 </i>
    <i name="e_wo_entrp">   -152.66743132 </i>
    <i name="e_0_energy">   -152.71235116 </i>
   </energy>
  </scstep>
  <scstep>
   <time name="dav">   15.89   15.91</time>
   <time name="total">   15.89   15.91</time>
   <energy>
    <i name="e_fr_energy">   -191.70722366 </i>
    <i name="e_wo_entrp">   -191.61888692 </i>
    <i name="e_0_energy">   -191.66305529 </i>
   </energy>
  </scstep>
  <scstep>
   <time name="dav">   18.15   18.17</time>
   <time name="total">   18.62   18.64</time>
   <energy>
    <i name="e_fr_energy">   -192.94782098 </i>
    <i name="e_wo_entrp">   -192.85946440 </i>
    <i name="e_0_energy">   -192.90364269 </i>
   </energy>
  </scstep>
  <scstep>
   <time name="diag">    2.06    2.07</time>
   <time name="diis">    5.51    5.52</time>
   <time name="orth">    0.61    0.61</time>
   <time name="total">    8.73    8.75</time>
   <energy>
    <i name="e_fr_energy">   -175.81680710 </i>
    <i name="e_wo_entrp">   -175.74787012 </i>
    <i name="e_0_energy">   -175.78233861 </i>
   </energy>
  </scstep>
  <scstep>
   <time name="diag">    2.20    2.20</time>
   <time name="diis">    6.03    6.03</time>
   <time name="orth">    0.63    0.63</time>
   <time name="total">    9.41    9.42</time>
   <energy>
    <i name="e_fr_energy">   -158.63225063 </i>
    <i name="e_wo_entrp">   -158.56084969 </i>
    <i name="e_0_energy">   -158.59655016 </i>
   </energy>
  </scstep>
  <scstep>
   <time name="diag">    2.20    2.21</time>
   <time name="diis">    6.01    6.02</time>
   <time name="orth">    0.65    0.65</time>
   <time name="total">    9.44    9.45</time>
   <energy>
    <i name="e_fr_energy">   -158.59045421 </i>
    <i name="e_wo_entrp">   -158.49657659 </i>
    <i name="e_0_energy">   -158.54351540 </i>
   </energy>
  </scstep>
  <scstep>
   <time name="diag">    2.30    2.30</time>
   <time name="diis">    6.56    6.57</time>
   <time name="orth">    0.64    0.64</time>
   <time name="total">   10.07   10.08</time>
   <energy>
    <i name="e_fr_energy">   -158.16951327 </i>
    <i name="e_wo_entrp">   -158.07639121 </i>
    <i name="e_0_energy">   -158.12295224 </i>
   </energy>
  </scstep>
  <scstep>
   <time name="diag">    2.33    2.33</time>
   <time name="diis">    6.76    6.77</time>
   <time name="orth">    0.64    0.64</time>
   <time name="total">   10.30   10.31</time>
   <energy>
    <i name="e_fr_energy">   -158.12097870 </i>
    <i name="e_wo_entrp">   -158.02679259 </i>
    <i name="e_0_energy">   -158.07388565 </i>
   </energy>
  </scstep>
  <scstep>
   <time name="diag">    2.06    2.06</time>
   <time name="diis">    5.29    5.30</time>
   <time name="orth">    0.63    0.63</time>
   <time name="total">    8.54    8.55</time>
   <energy>
    <i name="e_fr_energy">   -158.07825311 </i>
    <i name="e_wo_entrp">   -157.98929250 </i>
    <i name="e_0_energy">   -158.03377280 </i>
   </energy>
  </scstep>
  <scstep>
   <time name="diag">    2.09    2.09</time>
   <time name="diis">    6.11    6.11</time>
   <time name="orth">    0.63    0.64</time>
   <time name="total">    9.39    9.40</time>
   <energy>
    <i name="e_fr_energy">   -158.06610432 </i>
    <i name="e_wo_entrp">   -157.97638017 </i>
    <i name="e_0_energy">   -158.02124225 </i>
   </energy>
  </scstep>
  <scstep>
   <time name="diag">    2.23    2.23</time>
   <time name="diis">    5.98    5.99</time>
   <time name="orth">    0.61    0.62</time>
   <time name="total">    9.37    9.38</time>
   <energy>
    <i name="e_fr_energy">   -158.06041080 </i>
    <i name="e_wo_entrp">   -157.96904246 </i>
    <i name="e_0_energy">   -158.01472663 </i>
   </energy>
  </scstep>
  <scstep>
   <time name="diag">    2.13    2.14</time>
   <time name="diis">    6.46    6.47</time>
   <time name="orth">    0.64    0.64</time>
   <time name="total">    9.80    9.81</time>
   <energy>
    <i name="e_fr_energy">   -158.05532194 </i>
    <i name="e_wo_entrp">   -157.96417170 </i>
    <i name="e_0_energy">   -158.00974682 </i>
   </energy>
  </scstep>
  <scstep>
   <time name="diag">    2.28    2.28</time>
   <time name="diis">    6.28    6.29</time>
   <time name="orth">    0.60    0.60</time>
   <time name="total">    9.71    9.72</time>
   <energy>
    <i name="e_fr_energy">   -158.05412720 </i>
    <i name="e_wo_entrp">   -157.96228911 </i>
    <i name="e_0_energy">   -158.00820816 </i>
   </energy>
  </scstep>
  <scstep>
   <time name="diag">    2.12    2.12</time>
   <time name="diis">    5.89    5.89</time>
   <time name="orth">    0.64    0.64</time>
   <time name="total">    9.20    9.21</time>
   <energy>
    <i name="e_fr_energy">   -158.05387436 </i>
    <i name="e_wo_entrp">   -157.96201574 </i>
    <i name="e_0_energy">   -158.00794505 </i>
   </energy>
  </scstep>
  <scstep>
   <time name="diag">    2.22    2.22</time>
   <time name="diis">    6.02    6.03</time>
   <time name="orth">    0.61    0.62</time>
   <time name="total">    9.42    9.43</time>
   <energy>
    <i name="e_fr_energy">   -158.05454665 </i>
    <i name="e_wo_entrp">   -157.96250027 </i>
    <i name="e_0_energy">   -158.00852346 </i>
   </energy>
  </scstep>
  <scstep>
   <time name="diag">    2.09    2.09</time>
   <time name="diis">    6.33    6.34</time>
   <time name="orth">    0.64    0.64</time>
   <time name="total">    9.63    9.64</time>
   <energy>
    <i name="e_fr_energy">   -158.05566335 </i>
    <i name="e_wo_entrp">   -157.96355262 </i>
    <i name="e_0_energy">   -158.00960798 </i>
   </energy>
  </scstep>
  <scstep>
   <time name="diag">    2.26    2.26</time>
   <time name="diis">    6.24    6.24</time>
   <time name="orth">    0.60    0.60</time>
   <time name="total">    9.68    9.69</time>
   <energy>
    <i name="e_fr_energy">   -158.05634088 </i>
    <i name="e_wo_entrp">   -157.96422773 </i>
    <i name="e_0_energy">   -158.01028430 </i>
   </energy>
  </scstep>
  <scstep>
   <time name="diag">    2.05    2.05</time>
   <time name="diis">    5.61    5.62</time>
   <time name="orth">    0.64    0.64</time>
   <time name="total">    8.86    8.87</time>
   <energy>
    <i name="e_fr_energy">   -158.05656099 </i>
    <i name="e_wo_entrp">   -157.96448472 </i>
    <i name="e_0_energy">   -158.01052285 </i>
   </energy>
  </scstep>
  <scstep>
   <time name="diag">    2.15    2.16</time>
   <time name="diis">    6.09    6.10</time>
   <time name="orth">    0.63    0.63</time>
   <time name="total">    9.44    9.45</time>
   <energy>
    <i name="e_fr_energy">   -158.05679121 </i>
    <i name="e_wo_entrp">   -157.96470111 </i>
    <i name="e_0_energy">   -158.01074616 </i>
   </energy>
  </scstep>
  <scstep>
   <time name="diag">    2.15    2.16</time>
   <time name="diis">    6.01    6.03</time>
   <time name="orth">    0.64    0.64</time>
   <time name="total">    9.38    9.41</time>
   <energy>
    <i name="e_fr_energy">   -158.05702698 </i>
    <i name="e_wo_entrp">   -157.96497021 </i>
    <i name="e_0_energy">   -158.01099859 </i>
   </energy>
  </scstep>
  <scstep>
   <time name="diag">    2.27    2.27</time>
   <time name="diis">    6.39    6.39</time>
   <time name="orth">    0.65    0.65</time>
   <time name="total">    9.88    9.89</time>
   <energy>
    <i name="e_fr_energy">   -158.05717611 </i>
    <i name="e_wo_entrp">   -157.96509667 </i>
    <i name="e_0_energy">   -158.01113639 </i>
   </energy>
  </scstep>
  <scstep>
   <time name="diag">    2.04    2.04</time>
   <time name="diis">    5.58    5.59</time>
   <time name="orth">    0.62    0.62</time>
   <time name="total">    8.81    8.82</time>
   <energy>
    <i name="e_fr_energy">   -158.05728963 </i>
    <i name="e_wo_entrp">   -157.96521300 </i>
    <i name="e_0_energy">   -158.01125132 </i>
   </energy>
  </scstep>
  <scstep>
   <time name="diag">    2.20    2.21</time>
   <time name="diis">    6.00    6.00</time>
   <time name="orth">    0.63    0.63</time>
   <time name="total">    9.39    9.40</time>
   <energy>
    <i name="e_fr_energy">   -158.05746132 </i>
    <i name="e_wo_entrp">   -157.96538995 </i>
    <i name="e_0_energy">   -158.01142563 </i>
   </energy>
  </scstep>
  <scstep>
   <time name="diag">    2.20    2.21</time>
   <time name="diis">    6.35    6.35</time>
   <time name="orth">    0.65    0.65</time>
   <time name="total">    9.77    9.78</time>
   <energy>
    <i name="e_fr_energy">   -158.05753357 </i>
    <i name="e_wo_entrp">   -157.96545688 </i>
    <i name="e_0_energy">   -158.01149523 </i>
   </energy>
  </scstep>
  <scstep>
   <time name="diag">    2.27    2.27</time>
   <time name="diis">    6.41    6.42</time>
   <time name="orth">    0.64    0.64</time>
   <time name="total">    9.89    9.90</time>
   <energy>
    <i name="e_fr_energy">   -158.05754996 </i>
    <i name="e_wo_entrp">   -157.96546941 </i>
    <i name="e_0_energy">   -158.01150968 </i>
   </energy>
  </scstep>
  <scstep>
   <time name="diag">    2.06    2.06</time>
   <time name="diis">    5.48    5.49</time>
   <time name="orth">    0.61    0.61</time>
   <time name="total">    8.70    8.72</time>
   <energy>
    <i name="e_fr_energy">   -158.05756318 </i>
    <i name="e_wo_entrp">   -157.96548113 </i>
    <i name="e_0_energy">   -158.01152216 </i>
   </energy>
  </scstep>
  <scstep>
   <time name="diag">    2.22    2.22</time>
   <time name="diis">    5.96    5.97</time>
   <time name="orth">    0.64    0.64</time>
   <time name="total">    8.89    8.91</time>
   <energy>
    <i name="alphaZ">   1059.59457262 </i>
    <i name="ewald"> 178314.96021806 </i>
    <i name="hartreedc">-241803.51729791 </i>
    <i name="XCdc">   2121.01718360 </i>
    <i name="pawpsdc">  62116.76954232 </i>
    <i name="pawaedc"> -67240.47729701 </i>
    <i name="eentropy">     -0.09208089 </i>
    <i name="bandstr">  -1492.73930079 </i>
    <i name="atom">  66766.42689446 </i>
    <i name="e_fr_energy">   -158.05756555 </i>
    <i name="e_wo_entrp">   -157.96548466 </i>
    <i name="e_0_energy">   -158.01152510 </i>
   </energy>
  </scstep>
  <structure>
   <crystal>
    <varray name="basis" >
     <v>      15.33600000       0.00000000       0.00000000 </v>
     <v>       0.00000000       5.11200000       0.00000000 </v>
     <v>       0.00000000       0.00000000      20.50000000 </v>
    </varray>
    <i name="volume">   1607.15145600 </i>
    <varray name="rec_basis" >
     <v>       0.06520605       0.00000000       0.00000000 </v>
     <v>       0.00000000       0.19561815       0.00000000 </v>
     <v>       0.00000000       0.00000000       0.04878049 </v>
    </varray>
   </crystal>
   <varray name="positions" >
    <v>       0.08333333       0.30868544       0.45401780 </v>
    <v>       0.25000000       0.30868544       0.45401780 </v>
    <v>       0.41666667       0.30868544       0.45401780 </v>
    <v>       0.58333333       0.30868544       0.45401780 </v>
    <v>       0.75000000       0.30868544       0.45401780 </v>
    <v>       0.91666667       0.30868544       0.45401780 </v>
    <v>       0.08333333       0.80868545       0.45401780 </v>
    <v>       0.25000000       0.80868545       0.45401780 </v>
    <v>       0.41666667       0.80868545       0.45401780 </v>
    <v>       0.58333333       0.80868545       0.45401780 </v>
    <v>       0.75000000       0.80868545       0.45401780 </v>
    <v>       0.91666667       0.80868545       0.45401780 </v>
    <v>       0.00000000       0.05868545       0.54218194 </v>
    <v>       0.16666667       0.05868545       0.54218194 </v>
    <v>       0.33333333       0.05868545       0.54218194 </v>
    <v>       0.50000000       0.05868545       0.54218194 </v>
    <v>       0.66666667       0.05868545       0.54218194 </v>
    <v>       0.83333333       0.05868545       0.54218194 </v>
    <v>       0.00000000       0.55868546       0.54218194 </v>
    <v>       0.16666667       0.55868546       0.54218194 </v>
    <v>       0.33333333       0.55868546       0.54218194 </v>
    <v>       0.50000000       0.55868546       0.54218194 </v>
    <v>       0.66666667       0.55868546       0.54218194 </v>
    <v>       0.83333333       0.55868546       0.54218194 </v>
    <v>       0.08457947       0.30914522       0.63447144 </v>
    <v>       0.25432145       0.30889088       0.63649075 </v>
    <v>       0.41912143       0.30830269       0.63118685 </v>
    <v>       0.58132327       0.30871628       0.63160630 </v>
    <v>       0.74584358       0.30884295       0.63689187 </v>
    <v>       0.91545731       0.30896623       0.63440848 </v>
    <v>       0.08457977       0.80914568       0.63447145 </v>
    <v>       0.25432196       0.80889127       0.63649078 </v>
    <v>       0.41912224       0.80830261       0.63118688 </v>
    <v>       0.58132425       0.80871664       0.63160600 </v>
    <v>       0.74584422       0.80884375       0.63689177 </v>
    <v>       0.91545762       0.80896681       0.63440849 </v>
    <v>       0.00072760       0.05870912       0.72254756 </v>
    <v>       0.17111314       0.05916198       0.72300383 </v>
    <v>       0.34506149       0.05889436       0.72538481 </v>
    <v>       0.49772274       0.31023490       0.74694373 </v>
    <v>       0.65251547       0.05970512       0.72826724 </v>
    <v>       0.83076714       0.05846006       0.72281104 </v>
    <v>       0.00072709       0.55870907       0.72254706 </v>
    <v>       0.17111286       0.55916209       0.72300352 </v>
    <v>       0.34506081       0.55889445       0.72538471 </v>
    <v>       0.49772278       0.81023446       0.74694333 </v>
    <v>       0.65251474       0.55970557       0.72826703 </v>
    <v>       0.83076627       0.55845993       0.72281050 </v>
    <v>       0.43512494       0.06040119       0.77856159 </v>
    <v>       0.43512411       0.56040216       0.77856132 </v>
    <v>       0.60895952       0.80998309       0.77355288 </v>
    <v>       0.60896041       0.30998292       0.77355282 </v>
   </varray>
  </structure>
  <varray name="forces" >
   <v>      -0.00512984       0.00187301      -0.07105439 </v>
   <v>      -0.00354392      -0.00135515      -0.07678205 </v>
   <v>       0.00107298       0.00205050      -0.08888020 </v>
   <v>      -0.00403464       0.00201187      -0.08350211 </v>
   <v>       0.01427805      -0.00130639      -0.07063321 </v>
   <v>      -0.00582520       0.00189823      -0.07806046 </v>
   <v>      -0.00512998       0.00187315      -0.07105415 </v>
   <v>      -0.00354374      -0.00135489      -0.07678166 </v>
   <v>       0.00107281       0.00205042      -0.08888099 </v>
   <v>      -0.00403502       0.00201202      -0.08350145 </v>
   <v>       0.01427833      -0.00130656      -0.07063363 </v>
   <v>      -0.00582538       0.00189762      -0.07806151 </v>
   <v>       0.01769555      -0.00306350       0.13060765 </v>
   <v>       0.09062535       0.00114209       0.18902361 </v>
   <v>      -0.08152574      -0.00183911       0.00511798 </v>
   <v>       0.02253111      -0.00723662      -0.14525088 </v>
   <v>       0.08059284      -0.00029896       0.05407583 </v>
   <v>      -0.11528546       0.00032959       0.18827894 </v>
   <v>       0.01769559      -0.00306448       0.13061361 </v>
   <v>       0.09062430       0.00114308       0.18902791 </v>
   <v>      -0.08152673      -0.00183252       0.00511938 </v>
   <v>       0.02253261      -0.00724292      -0.14524903 </v>
   <v>       0.08059414      -0.00031516       0.05408112 </v>
   <v>      -0.11528525       0.00032733       0.18828674 </v>
   <v>      -0.00156407      -0.00077870       0.00126500 </v>
   <v>      -0.00132905       0.00114541       0.00070483 </v>
   <v>      -0.00229929       0.00160939       0.00558662 </v>
   <v>      -0.00014820      -0.00020985       0.00294860 </v>
   <v>       0.00091714      -0.00050416       0.00294371 </v>
   <v>      -0.00064624      -0.00123444       0.00212966 </v>
   <v>      -0.00157259      -0.00078669       0.00126504 </v>
   <v>      -0.00134478       0.00113848       0.00070588 </v>
   <v>      -0.00232519       0.00161075       0.00558482 </v>
   <v>      -0.00017720      -0.00021494       0.00296343 </v>
   <v>       0.00089866      -0.00051487       0.00294577 </v>
   <v>      -0.00065283      -0.00124490       0.00212920 </v>
   <v>       0.00035533      -0.00156090       0.00390324 </v>
   <v>       0.00022027      -0.00050270       0.00108569 </v>
   <v>      -0.00708897       0.00268855       0.00841900 </v>
   <v>      -0.00154733       0.00237664       0.00325995 </v>
   <v>       0.00402161       0.00103920       0.00529417 </v>
   <v>       0.00171919      -0.00168574       0.00565613 </v>
   <v>       0.00035647      -0.00156119       0.00393425 </v>
   <v>       0.00021456      -0.00050450       0.00110356 </v>
   <v>      -0.00706931       0.00268519       0.00842085 </v>
   <v>      -0.00154743       0.00238332       0.00326938 </v>
   <v>       0.00405398       0.00103244       0.00530647 </v>
   <v>       0.00174191      -0.00168224       0.00569433 </v>
   <v>      -0.00317433       0.00196971       0.00221559 </v>
   <v>      -0.00315423       0.00195756       0.00221574 </v>
   <v>      -0.00086575       0.00147915       0.00156657 </v>
   <v>      -0.00089506       0.00147738       0.00157547 </v>
  </varray>
  <varray name="stress" >
   <v>      -8.70729196       0.00894644      -0.11699504 </v>
   <v>       0.00894638      -2.10536646      -0.03608078 </v>
   <v>      -0.11699495      -0.03608068      -1.04862329 </v>
  </varray>
  <energy>
   <i name="e_fr_energy">   -158.05756555 </i>
   <i name="e_wo_entrp">   -158.01152510 </i>
   <i name="e_0_energy">     -0.09208089 </i>
  </energy>
  <time name="totalsc">  315.12  315.70</time>
 </calculation>
 <calculation>
  <scstep>
   <time name="dav">   15.09   15.11</time>
   <time name="total">   16.13   16.17</time>
   <energy>
    <i name="alphaZ">   1059.59457262 </i>
    <i name="ewald"> 178315.13646107 </i>
    <i name="hartreedc">-241803.68299783 </i>
    <i name="XCdc">   2121.01769983 </i>
    <i name="pawpsdc">  62116.78094311 </i>
    <i name="pawaedc"> -67240.48950763 </i>
    <i name="eentropy">     -0.09208255 </i>
    <i name="bandstr">  -1492.74953319 </i>
    <i name="atom">  66766.42689446 </i>
    <i name="e_fr_energy">   -158.05755011 </i>
    <i name="e_wo_entrp">   -157.96546756 </i>
    <i name="e_0_energy">   -158.01150884 </i>
   </energy>
  </scstep>
  <scstep>
   <time name="diag">    2.27    2.27</time>
   <time name="diis">    6.03    6.04</time>
   <time name="orth">    0.60    0.60</time>
   <time name="total">    9.45    9.46</time>
   <energy>
    <i name="e_fr_energy">   -158.05755694 </i>
    <i name="e_wo_entrp">   -157.96547274 </i>
    <i name="e_0_energy">   -158.01151484 </i>
   </energy>
  </scstep>
  <scstep>
   <time name="diag">    2.03    2.03</time>
   <time name="diis">    7.46    7.47</time>
   <time name="orth">    0.64    0.64</time>
   <time name="total">   10.69   10.70</time>
   <energy>
    <i name="e_fr_energy">   -158.05755792 </i>
    <i name="e_wo_entrp">   -157.96547747 </i>
    <i name="e_0_energy">   -158.01151769 </i>
   </energy>
  </scstep>
  <scstep>
   <time name="diag">    2.09    2.10</time>
   <time name="diis">    6.10    6.11</time>
   <time name="orth">    0.68    0.69</time>
   <time name="total">    9.42    9.44</time>
   <energy>
    <i name="e_fr_energy">   -158.05755788 </i>
    <i name="e_wo_entrp">   -157.96547607 </i>
    <i name="e_0_energy">   -158.01151697 </i>
   </energy>
  </scstep>
  <scstep>
   <time name="diag">    2.06    2.06</time>
   <time name="diis">    5.91    5.92</time>
   <time name="orth">    0.63    0.63</time>
   <time name="total">    8.67    8.68</time>
   <energy>
    <i name="alphaZ">   1059.59457262 </i>
    <i name="ewald"> 178315.13646107 </i>
    <i name="hartreedc">-241803.68431546 </i>
    <i name="XCdc">   2121.01755292 </i>
    <i name="pawpsdc">  62116.84472606 </i>
    <i name="pawaedc"> -67240.55401104 </i>
    <i name="eentropy">     -0.09207854 </i>
    <i name="bandstr">  -1492.74736002 </i>
    <i name="atom">  66766.42689446 </i>
    <i name="e_fr_energy">   -158.05755793 </i>
    <i name="e_wo_entrp">   -157.96547939 </i>
    <i name="e_0_energy">   -158.01151866 </i>
   </energy>
  </scstep>
  <structure>
   <crystal>
    <varray name="basis" >
     <v>      15.33600000       0.00000000       0.00000000 </v>
     <v>       0.00000000       5.11200000       0.00000000 </v>
     <v>       0.00000000       0.00000000      20.50000000 </v>
    </varray>
    <i name="volume">   1607.15145600 </i>
    <varray name="rec_basis" >
     <v>       0.06520605       0.00000000       0.00000000 </v>
     <v>       0.00000000       0.19561815       0.00000000 </v>
     <v>       0.00000000       0.00000000       0.04878049 </v>
    </varray>
   </crystal>
   <varray name="positions" >
    <v>       0.08333333       0.30868544       0.45401780 </v>
    <v>       0.25000000       0.30868544       0.45401780 </v>
    <v>       0.41666667       0.30868544       0.45401780 </v>
    <v>       0.58333333       0.30868544       0.45401780 </v>
    <v>       0.75000000       0.30868544       0.45401780 </v>
    <v>       0.91666667       0.30868544       0.45401780 </v>
    <v>       0.08333333       0.80868545       0.45401780 </v>
    <v>       0.25000000       0.80868545       0.45401780 </v>
    <v>       0.41666667       0.80868545       0.45401780 </v>
    <v>       0.58333333       0.80868545       0.45401780 </v>
    <v>       0.75000000       0.80868545       0.45401780 </v>
    <v>       0.91666667       0.80868545       0.45401780 </v>
    <v>       0.00000000       0.05868545       0.54218194 </v>
    <v>       0.16666667       0.05868545       0.54218194 </v>
    <v>       0.33333333       0.05868545       0.54218194 </v>
    <v>       0.50000000       0.05868545       0.54218194 </v>
    <v>       0.66666667       0.05868545       0.54218194 </v>
    <v>       0.83333333       0.05868545       0.54218194 </v>
    <v>       0.00000000       0.55868546       0.54218194 </v>
    <v>       0.16666667       0.55868546       0.54218194 </v>
    <v>       0.33333333       0.55868546       0.54218194 </v>
    <v>       0.50000000       0.55868546       0.54218194 </v>
    <v>       0.66666667       0.55868546       0.54218194 </v>
    <v>       0.83333333       0.55868546       0.54218194 </v>
    <v>       0.08457947       0.30914522       0.63447144 </v>
    <v>       0.25432145       0.30889088       0.63649075 </v>
    <v>       0.41912143       0.30830269       0.63118685 </v>
    <v>       0.58132327       0.30871628       0.63160630 </v>
    <v>       0.74584358       0.30884295       0.63689187 </v>
    <v>       0.91545731       0.30896623       0.63440848 </v>
    <v>       0.08457977       0.80914568       0.63447145 </v>
    <v>       0.25432196       0.80889127       0.63649078 </v>
    <v>       0.41912224       0.80830261       0.63118688 </v>
    <v>       0.58132425       0.80871664       0.63160600 </v>
    <v>       0.74584422       0.80884375       0.63689177 </v>
    <v>       0.91545762       0.80896681       0.63440849 </v>
    <v>       0.00072760       0.05870912       0.72254756 </v>
    <v>       0.17111314       0.05916198       0.72300383 </v>
    <v>       0.34512670       0.05889436       0.72538481 </v>
    <v>       0.49772274       0.31023490       0.74694373 </v>
    <v>       0.65251547       0.05970512       0.72826724 </v>
    <v>       0.83076714       0.05846006       0.72281104 </v>
    <v>       0.00072709       0.55870907       0.72254706 </v>
    <v>       0.17111286       0.55916209       0.72300352 </v>
    <v>       0.34506081       0.55889445       0.72538471 </v>
    <v>       0.49772278       0.81023446       0.74694333 </v>
    <v>       0.65251474       0.55970557       0.72826703 </v>
    <v>       0.83076627       0.55845993       0.72281050 </v>
    <v>       0.43512494       0.06040119       0.77856159 </v>
    <v>       0.43512411       0.56040216       0.77856132 </v>
    <v>       0.60895952       0.80998309       0.77355288 </v>
    <v>       0.60896041       0.30998292       0.77355282 </v>
   </varray>
  </structure>
  <varray name="forces" >
   <v>      -0.00512425       0.00186057      -0.07104923 </v>
   <v>      -0.00354217      -0.00135671      -0.07676546 </v>
   <v>       0.00107240       0.00204927      -0.08887087 </v>
   <v>      -0.00405534       0.00200712      -0.08349519 </v>
   <v>       0.01426084      -0.00130576      -0.07064648 </v>
   <v>      -0.00583789       0.00189993      -0.07806563 </v>
   <v>      -0.00512442       0.00188051      -0.07104908 </v>
   <v>      -0.00354193      -0.00135813      -0.07676496 </v>
   <v>       0.00107200       0.00204698      -0.08887185 </v>
   <v>      -0.00405577       0.00201132      -0.08349436 </v>
   <v>       0.01426103      -0.00131219      -0.07064695 </v>
   <v>      -0.00583807       0.00189077      -0.07806685 </v>
   <v>       0.01767530      -0.00306604       0.13063411 </v>
   <v>       0.09064577       0.00113943       0.18906044 </v>
   <v>      -0.08155854      -0.00184152       0.00514019 </v>
   <v>       0.02253704      -0.00723929      -0.14529076 </v>
   <v>       0.08058026      -0.00030166       0.05409343 </v>
   <v>      -0.11528657       0.00032715       0.18832690 </v>
   <v>       0.01768584      -0.00306694       0.13066939 </v>
   <v>       0.09063725       0.00114039       0.18904058 </v>
   <v>      -0.08151495      -0.00183517       0.00510292 </v>
   <v>       0.02252375      -0.00724559      -0.14526112 </v>
   <v>       0.08056838      -0.00031781       0.05410459 </v>
   <v>      -0.11529914       0.00032497       0.18831390 </v>
   <v>      -0.00149822      -0.00081580       0.00131192 </v>
   <v>      -0.00095835       0.00076463       0.00125646 </v>
   <v>      -0.00204827       0.00199413       0.00497074 </v>
   <v>      -0.00013559      -0.00019184       0.00293523 </v>
   <v>       0.00090255      -0.00049994       0.00295645 </v>
   <v>      -0.00064143      -0.00123808       0.00213972 </v>
   <v>      -0.00150670      -0.00075465       0.00131235 </v>
   <v>      -0.00097338       0.00151470       0.00125773 </v>
   <v>      -0.00207814       0.00122734       0.00498062 </v>
   <v>      -0.00016458      -0.00023788       0.00294985 </v>
   <v>       0.00088418      -0.00052429       0.00295849 </v>
   <v>      -0.00064803      -0.00124647       0.00213926 </v>
   <v>       0.00038290      -0.00156318       0.00390092 </v>
   <v>       0.00111079      -0.00050559       0.00099906 </v>
   <v>      -0.01162569       0.00281644       0.00705237 </v>
   <v>      -0.00066610       0.00301962       0.00319826 </v>
   <v>       0.00404245       0.00103700       0.00527855 </v>
   <v>       0.00172185      -0.00168808       0.00565014 </v>
   <v>       0.00033965      -0.00156354       0.00394363 </v>
   <v>       0.00010402      -0.00050764       0.00097500 </v>
   <v>      -0.00727072       0.00268278       0.00836027 </v>
   <v>      -0.00063607       0.00172103       0.00321594 </v>
   <v>       0.00403561       0.00102977       0.00529351 </v>
   <v>       0.00171820      -0.00168458       0.00568788 </v>
   <v>      -0.00211946       0.00197553       0.00376119 </v>
   <v>      -0.00316843       0.00195577       0.00223906 </v>
   <v>      -0.00090713       0.00148910       0.00155939 </v>
   <v>      -0.00093674       0.00146212       0.00156835 </v>
  </varray>
  <varray name="stress" >
   <v>      -8.69320566       0.00886872      -0.11808199 </v>
   <v>       0.00886868      -2.09093399      -0.03614009 </v>
   <v>      -0.11808207      -0.03614002      -1.03243265 </v>
  </varray>
  <energy>
   <i name="e_fr_energy">   -158.05755793 </i>
   <i name="e_wo_entrp">   -158.01151866 </i>
   <i name="e_0_energy">     -0.09207854 </i>
  </energy>
  <time name="totalsc">   67.01   67.14</time>
 </calculation>
 <calculation>
  <scstep>
   <time name="dav">   14.09   14.11</time>
   <time name="total">   14.64   14.67</time>
   <energy>
    <i name="alphaZ">   1059.59457262 </i>
    <i name="ewald"> 178314.96051990 </i>
    <i name="hartreedc">-241803.51409347 </i>
    <i name="XCdc">   2121.01694796 </i>
    <i name="pawpsdc">  62116.87098500 </i>
    <i name="pawaedc"> -67240.58087578 </i>
    <i name="eentropy">     -0.09207952 </i>
    <i name="bandstr">  -1492.74041744 </i>
    <i name="atom">  66766.42689446 </i>
    <i name="e_fr_energy">   -158.05754627 </i>
    <i name="e_wo_entrp">   -157.96546675 </i>
    <i name="e_0_energy">   -158.01150651 </i>
   </energy>
  </scstep>
  <scstep>
   <time name="diag">    2.15    2.16</time>
   <time name="diis">    5.93    5.94</time>
   <time name="orth">    0.62    0.63</time>
   <time name="total">    9.27    9.28</time>
   <energy>
    <i name="e_fr_energy">   -158.05755968 </i>
    <i name="e_wo_entrp">   -157.96547818 </i>
    <i name="e_0_energy">   -158.01151893 </i>
   </energy>
  </scstep>
  <scstep>
   <time name="diag">    2.15    2.15</time>
   <time name="diis">    7.99    8.00</time>
   <time name="orth">    0.63    0.63</time>
   <time name="total">   11.32   11.33</time>
   <energy>
    <i name="e_fr_energy">   -158.05756168 </i>
    <i name="e_wo_entrp">   -157.96548382 </i>
    <i name="e_0_energy">   -158.01152275 </i>
   </energy>
  </scstep>
  <scstep>
   <time name="diag">    2.14    2.15</time>
   <time name="diis">    6.53    6.54</time>
   <time name="orth">    0.64    0.64</time>
   <time name="total">    9.99   10.01</time>
   <energy>
    <i name="e_fr_energy">   -158.05756152 </i>
    <i name="e_wo_entrp">   -157.96548202 </i>
    <i name="e_0_energy">   -158.01152177 </i>
   </energy>
  </scstep>
  <scstep>
   <time name="diag">    2.18    2.18</time>
   <time name="diis">    6.06    6.07</time>
   <time name="orth">    0.62    0.62</time>
   <time name="total">    9.00    9.01</time>
   <energy>
    <i name="alphaZ">   1059.59457262 </i>
    <i name="ewald"> 178314.96051990 </i>
    <i name="hartreedc">-241803.51080869 </i>
    <i name="XCdc">   2121.01712940 </i>
    <i name="pawpsdc">  62116.82182775 </i>
    <i name="pawaedc"> -67240.53175455 </i>
    <i name="eentropy">     -0.09207608 </i>
    <i name="bandstr">  -1492.74386615 </i>
    <i name="atom">  66766.42689446 </i>
    <i name="e_fr_energy">   -158.05756134 </i>
    <i name="e_wo_entrp">   -157.96548525 </i>
    <i name="e_0_energy">   -158.01152330 </i>
   </energy>
  </scstep>
  <structure>
   <crystal>
    <varray name="basis" >
     <v>      15.33600000       0.00000000       0.00000000 </v>
     <v>       0.00000000       5.11200000       0.00000000 </v>
     <v>       0.00000000       0.00000000      20.50000000 </v>
    </varray>
    <i name="volume">   1607.15145600 </i>
    <varray name="rec_basis" >
     <v>       0.06520605       0.00000000       0.00000000 </v>
     <v>       0.00000000       0.19561815       0.00000000 </v>
     <v>       0.00000000       0.00000000       0.04878049 </v>
    </varray>
   </crystal>
   <varray name="positions" >
    <v>       0.08333333       0.30868544       0.45401780 </v>
    <v>       0.25000000       0.30868544       0.45401780 </v>
    <v>       0.41666667       0.30868544       0.45401780 </v>
    <v>       0.58333333       0.30868544       0.45401780 </v>
    <v>       0.75000000       0.30868544       0.45401780 </v>
    <v>       0.91666667       0.30868544       0.45401780 </v>
    <v>       0.08333333       0.80868545       0.45401780 </v>
    <v>       0.25000000       0.80868545       0.45401780 </v>
    <v>       0.41666667       0.80868545       0.45401780 </v>
    <v>       0.58333333       0.80868545       0.45401780 </v>
    <v>       0.75000000       0.80868545       0.45401780 </v>
    <v>       0.91666667       0.80868545       0.45401780 </v>
    <v>       0.00000000       0.05868545       0.54218194 </v>
    <v>       0.16666667       0.05868545       0.54218194 </v>
    <v>       0.33333333       0.05868545       0.54218194 </v>
    <v>       0.50000000       0.05868545       0.54218194 </v>
    <v>       0.66666667       0.05868545       0.54218194 </v>
    <v>       0.83333333       0.05868545       0.54218194 </v>
    <v>       0.00000000       0.55868546       0.54218194 </v>
    <v>       0.16666667       0.55868546       0.54218194 </v>
    <v>       0.33333333       0.55868546       0.54218194 </v>
    <v>       0.50000000       0.55868546       0.54218194 </v>
    <v>       0.66666667       0.55868546       0.54218194 </v>
    <v>       0.83333333       0.55868546       0.54218194 </v>
    <v>       0.08457947       0.30914522       0.63447144 </v>
    <v>       0.25432145       0.30889088       0.63649075 </v>
    <v>       0.41912143       0.30830269       0.63118685 </v>
    <v>       0.58132327       0.30871628       0.63160630 </v>
    <v>       0.74584358       0.30884295       0.63689187 </v>
    <v>       0.91545731       0.30896623       0.63440848 </v>
    <v>       0.08457977       0.80914568       0.63447145 </v>
    <v>       0.25432196       0.80889127       0.63649078 </v>
    <v>       0.41912224       0.80830261       0.63118688 </v>
    <v>       0.58132425       0.80871664       0.63160600 </v>
    <v>       0.74584422       0.80884375       0.63689177 </v>
    <v>       0.91545762       0.80896681       0.63440849 </v>
    <v>       0.00072760       0.05870912       0.72254756 </v>
    <v>       0.17111314       0.05916198       0.72300383 </v>
    <v>       0.34506149       0.05908998       0.72538481 </v>
    <v>       0.49772274       0.31023490       0.74694373 </v>
    <v>       0.65251547       0.05970512       0.72826724 </v>
    <v>       0.83076714       0.05846006       0.72281104 </v>
    <v>       0.00072709       0.55870907       0.72254706 </v>
    <v>       0.17111286       0.55916209       0.72300352 </v>
    <v>       0.34506081       0.55889445       0.72538471 </v>
    <v>       0.49772278       0.81023446       0.74694333 </v>
    <v>       0.65251474       0.55970557       0.72826703 </v>
    <v>       0.83076627       0.55845993       0.72281050 </v>
    <v>       0.43512494       0.06040119       0.77856159 </v>
    <v>       0.43512411       0.56040216       0.77856132 </v>
    <v>       0.60895952       0.80998309       0.77355288 </v>
    <v>       0.60896041       0.30998292       0.77355282 </v>
   </varray>
  </structure>
  <varray name="forces" >
   <v>      -0.00512296       0.00186624      -0.07107179 </v>
   <v>      -0.00353154      -0.00136224      -0.07676673 </v>
   <v>       0.00107926       0.00204260      -0.08887687 </v>
   <v>      -0.00403299       0.00200395      -0.08349112 </v>
   <v>       0.01428491      -0.00131620      -0.07063324 </v>
   <v>      -0.00581334       0.00188967      -0.07805623 </v>
   <v>      -0.00511547       0.00186542      -0.07102807 </v>
   <v>      -0.00353552      -0.00136345      -0.07678671 </v>
   <v>       0.00108573       0.00204242      -0.08887096 </v>
   <v>      -0.00402801       0.00200392      -0.08349955 </v>
   <v>       0.01427583      -0.00131586      -0.07063850 </v>
   <v>      -0.00582274       0.00188883      -0.07806372 </v>
   <v>       0.01770608      -0.00311296       0.13063152 </v>
   <v>       0.09063081       0.00116467       0.18903630 </v>
   <v>      -0.08152216      -0.00189062       0.00512884 </v>
   <v>       0.02253186      -0.00725977      -0.14522501 </v>
   <v>       0.08060636      -0.00029559       0.05408936 </v>
   <v>      -0.11527450       0.00033801       0.18830055 </v>
   <v>       0.01770479      -0.00303624       0.13063596 </v>
   <v>       0.09063033       0.00110397       0.18903923 </v>
   <v>      -0.08152103      -0.00179095       0.00513835 </v>
   <v>       0.02252904      -0.00723448      -0.14521782 </v>
   <v>       0.08060932      -0.00033669       0.05409321 </v>
   <v>      -0.11527313       0.00030372       0.18830974 </v>
   <v>      -0.00160858      -0.00079189       0.00119762 </v>
   <v>      -0.00162126       0.00144461       0.00039032 </v>
   <v>      -0.00191377       0.00199736       0.00500301 </v>
   <v>      -0.00013194      -0.00021928       0.00296024 </v>
   <v>       0.00092495      -0.00051187       0.00293123 </v>
   <v>      -0.00062955      -0.00124446       0.00214233 </v>
   <v>      -0.00152786      -0.00080836       0.00131486 </v>
   <v>      -0.00108549       0.00142159       0.00096270 </v>
   <v>      -0.00272663       0.00204625       0.00629735 </v>
   <v>      -0.00017347      -0.00022474       0.00299215 </v>
   <v>       0.00090921      -0.00052317       0.00295037 </v>
   <v>      -0.00065197      -0.00125523       0.00211839 </v>
   <v>       0.00035053      -0.00156953       0.00388855 </v>
   <v>       0.00015039      -0.00052573       0.00104939 </v>
   <v>      -0.00710383      -0.00267545       0.00846632 </v>
   <v>      -0.00127317       0.00251315       0.00332525 </v>
   <v>       0.00399521       0.00100844       0.00529635 </v>
   <v>       0.00172407      -0.00169827       0.00564336 </v>
   <v>       0.00036207      -0.00155914       0.00391946 </v>
   <v>       0.00023889      -0.00060689       0.00109216 </v>
   <v>      -0.00699014       0.00664904       0.00842380 </v>
   <v>      -0.00190458       0.00251996       0.00314469 </v>
   <v>       0.00403227       0.00104598       0.00530563 </v>
   <v>       0.00174555      -0.00168671       0.00568130 </v>
   <v>      -0.00327368       0.00193363       0.00209300 </v>
   <v>      -0.00314204       0.00215577       0.00217318 </v>
   <v>      -0.00083042       0.00148421       0.00151765 </v>
   <v>      -0.00092567       0.00148234       0.00154261 </v>
  </varray>
  <varray name="stress" >
   <v>      -8.71232251       0.01021355      -0.11697409 </v>
   <v>       0.01021357      -2.10989798      -0.03859800 </v>
   <v>      -0.11697419      -0.03859800      -1.05203344 </v>
  </varray>
  <energy>
   <i name="e_fr_energy">   -158.05756134 </i>
   <i name="e_wo_entrp">   -158.01152330 </i>
   <i name="e_0_energy">     -0.09207608 </i>
  </energy>
  <time name="totalsc">   67.24   67.35</time>
 </calculation>
 <calculation>
  <scstep>
   <time name="dav">   14.82   14.85</time>
   <time name="total">   15.44   15.49</time>
   <energy>
    <i name="alphaZ">   1059.59457262 </i>
    <i name="ewald"> 178311.95417469 </i>
    <i name="hartreedc">-241800.51017046 </i>
    <i name="XCdc">   2121.01593409 </i>
    <i name="pawpsdc">  62116.79614562 </i>
    <i name="pawaedc"> -67240.50561471 </i>
    <i name="eentropy">     -0.09208300 </i>
    <i name="bandstr">  -1492.73741039 </i>
    <i name="atom">  66766.42689446 </i>
    <i name="e_fr_energy">   -158.05755709 </i>
    <i name="e_wo_entrp">   -157.96547409 </i>
    <i name="e_0_energy">   -158.01151559 </i>
   </energy>
  </scstep>
  <scstep>
   <time name="diag">    2.16    2.17</time>
   <time name="diis">    5.80    5.80</time>
   <time name="orth">    0.64    0.64</time>
   <time name="total">    9.17    9.18</time>
   <energy>
    <i name="e_fr_energy">   -158.05757067 </i>
    <i name="e_wo_entrp">   -157.96548441 </i>
    <i name="e_0_energy">   -158.01152754 </i>
   </energy>
  </scstep>
  <scstep>
   <time name="diag">    2.30    2.31</time>
   <time name="diis">    8.74    8.75</time>
   <time name="orth">    0.60    0.60</time>
   <time name="total">   12.19   12.20</time>
   <energy>
    <i name="e_fr_energy">   -158.05757266 </i>
    <i name="e_wo_entrp">   -157.96549248 </i>
    <i name="e_0_energy">   -158.01153257 </i>
   </energy>
  </scstep>
  <scstep>
   <time name="diag">    2.00    2.01</time>
   <time name="diis">    5.82    5.83</time>
   <time name="orth">    0.65    0.65</time>
   <time name="total">    9.03    9.05</time>
   <energy>
    <i name="e_fr_energy">   -158.05757247 </i>
    <i name="e_wo_entrp">   -157.96548983 </i>
    <i name="e_0_energy">   -158.01153115 </i>
   </energy>
  </scstep>
  <scstep>
   <time name="diag">    2.12    2.12</time>
   <time name="diis">    6.10    6.11</time>
   <time name="orth">    0.63    0.63</time>
   <time name="total">    8.93    8.94</time>
   <energy>
    <i name="alphaZ">   1059.59457262 </i>
    <i name="ewald"> 178311.95417469 </i>
    <i name="hartreedc">-241800.50990296 </i>
    <i name="XCdc">   2121.01609109 </i>
    <i name="pawpsdc">  62116.71454673 </i>
    <i name="pawaedc"> -67240.42120575 </i>
    <i name="eentropy">     -0.09208012 </i>
    <i name="bandstr">  -1492.74066297 </i>
    <i name="atom">  66766.42689446 </i>
    <i name="e_fr_energy">   -158.05757222 </i>
    <i name="e_wo_entrp">   -157.96549210 </i>
    <i name="e_0_energy">   -158.01153216 </i>
   </energy>
  </scstep>
  <structure>
   <crystal>
    <varray name="basis" >
     <v>      15.33600000       0.00000000       0.00000000 </v>
     <v>       0.00000000       5.11200000       0.00000000 </v>
     <v>       0.00000000       0.00000000      20.50000000 </v>
    </varray>
    <i name="volume">   1607.15145600 </i>
    <varray name="rec_basis" >
     <v>       0.06520605       0.00000000       0.00000000 </v>
     <v>       0.00000000       0.19561815       0.00000000 </v>
     <v>       0.00000000       0.00000000       0.04878049 </v>
    </varray>
   </crystal>
   <varray name="positions" >
    <v>       0.08333333       0.30868544       0.45401780 </v>
    <v>       0.25000000       0.30868544       0.45401780 </v>
    <v>       0.41666667       0.30868544       0.45401780 </v>
    <v>       0.58333333       0.30868544       0.45401780 </v>
    <v>       0.75000000       0.30868544       0.45401780 </v>
    <v>       0.91666667       0.30868544       0.45401780 </v>
    <v>       0.08333333       0.80868545       0.45401780 </v>
    <v>       0.25000000       0.80868545       0.45401780 </v>
    <v>       0.41666667       0.80868545       0.45401780 </v>
    <v>       0.58333333       0.80868545       0.45401780 </v>
    <v>       0.75000000       0.80868545       0.45401780 </v>
    <v>       0.91666667       0.80868545       0.45401780 </v>
    <v>       0.00000000       0.05868545       0.54218194 </v>
    <v>       0.16666667       0.05868545       0.54218194 </v>
    <v>       0.33333333       0.05868545       0.54218194 </v>
    <v>       0.50000000       0.05868545       0.54218194 </v>
    <v>       0.66666667       0.05868545       0.54218194 </v>
    <v>       0.83333333       0.05868545       0.54218194 </v>
    <v>       0.00000000       0.55868546       0.54218194 </v>
    <v>       0.16666667       0.55868546       0.54218194 </v>
    <v>       0.33333333       0.55868546       0.54218194 </v>
    <v>       0.50000000       0.55868546       0.54218194 </v>
    <v>       0.66666667       0.55868546       0.54218194 </v>
    <v>       0.83333333       0.55868546       0.54218194 </v>
    <v>       0.08457947       0.30914522       0.63447144 </v>
    <v>       0.25432145       0.30889088       0.63649075 </v>
    <v>       0.41912143       0.30830269       0.63118685 </v>
    <v>       0.58132327       0.30871628       0.63160630 </v>
    <v>       0.74584358       0.30884295       0.63689187 </v>
    <v>       0.91545731       0.30896623       0.63440848 </v>
    <v>       0.08457977       0.80914568       0.63447145 </v>
    <v>       0.25432196       0.80889127       0.63649078 </v>
    <v>       0.41912224       0.80830261       0.63118688 </v>
    <v>       0.58132425       0.80871664       0.63160600 </v>
    <v>       0.74584422       0.80884375       0.63689177 </v>
    <v>       0.91545762       0.80896681       0.63440849 </v>
    <v>       0.00072760       0.05870912       0.72254756 </v>
    <v>       0.17111314       0.05916198       0.72300383 </v>
    <v>       0.34506149       0.05889436       0.72543359 </v>
    <v>       0.49772274       0.31023490       0.74694373 </v>
    <v>       0.65251547       0.05970512       0.72826724 </v>
    <v>       0.83076714       0.05846006       0.72281104 </v>
    <v>       0.00072709       0.55870907       0.72254706 </v>
    <v>       0.17111286       0.55916209       0.72300352 </v>
    <v>       0.34506081       0.55889445       0.72538471 </v>
    <v>       0.49772278       0.81023446       0.74694333 </v>
    <v>       0.65251474       0.55970557       0.72826703 </v>
    <v>       0.83076627       0.55845993       0.72281050 </v>
    <v>       0.43512494       0.06040119       0.77856159 </v>
    <v>       0.43512411       0.56040216       0.77856132 </v>
    <v>       0.60895952       0.80998309       0.77355288 </v>
    <v>       0.60896041       0.30998292       0.77355282 </v>
   </varray>
  </structure>
  <varray name="forces" >
   <v>      -0.00513238       0.00189309      -0.07104156 </v>
   <v>      -0.00353027      -0.00134863      -0.07679521 </v>
   <v>       0.00107219       0.00205461      -0.08888576 </v>
   <v>      -0.00403387       0.00202399      -0.08349843 </v>
   <v>       0.01426510      -0.00129723      -0.07063781 </v>
   <v>      -0.00582418       0.00190375      -0.07806117 </v>
   <v>      -0.00513134       0.00188122      -0.07103946 </v>
   <v>      -0.00353112      -0.00133298      -0.07679320 </v>
   <v>       0.00107257       0.00207450      -0.08888760 </v>
   <v>      -0.00403425       0.00202779      -0.08349673 </v>
   <v>       0.01426505      -0.00128750      -0.07063690 </v>
   <v>      -0.00582431       0.00192035      -0.07806392 </v>
   <v>       0.01769531      -0.00304964       0.13063658 </v>
   <v>       0.09066789       0.00115842       0.18908136 </v>
   <v>      -0.08152631      -0.00181586       0.00519466 </v>
   <v>       0.02248082      -0.00721808      -0.14519680 </v>
   <v>       0.08060765      -0.00028535       0.05408615 </v>
   <v>      -0.11528941       0.00034355       0.18827678 </v>
   <v>       0.01770720      -0.00304986       0.13061634 </v>
   <v>       0.09060361       0.00115359       0.18903996 </v>
   <v>      -0.08152612      -0.00182830       0.00524245 </v>
   <v>       0.02253054      -0.00723411      -0.14522086 </v>
   <v>       0.08059178      -0.00030083       0.05408822 </v>
   <v>      -0.11527892       0.00034198       0.18830766 </v>
   <v>      -0.00156218      -0.00075593       0.00126943 </v>
   <v>      -0.00078161       0.00066240       0.00138459 </v>
   <v>      -0.00294107       0.00093502       0.00654537 </v>
   <v>      -0.00017630      -0.00022668       0.00300375 </v>
   <v>       0.00091467      -0.00048580       0.00293714 </v>
   <v>      -0.00065041      -0.00122374       0.00212817 </v>
   <v>      -0.00158077      -0.00077896       0.00126857 </v>
   <v>      -0.00084167       0.00160222       0.00132434 </v>
   <v>      -0.00292375       0.00225816       0.00646777 </v>
   <v>      -0.00020207      -0.00016867       0.00301367 </v>
   <v>       0.00089802      -0.00050499       0.00293728 </v>
   <v>      -0.00065463      -0.00122734       0.00212850 </v>
   <v>       0.00033386      -0.00154913       0.00387903 </v>
   <v>       0.00042380      -0.00047737       0.00113659 </v>
   <v>      -0.00832273       0.00227462       0.00392309 </v>
   <v>      -0.00131989       0.00267666       0.00311959 </v>
   <v>       0.00396229       0.00105240       0.00527225 </v>
   <v>       0.00171798      -0.00167041       0.00564568 </v>
   <v>       0.00036357      -0.00154648       0.00391097 </v>
   <v>       0.00031959      -0.00048255       0.00113971 </v>
   <v>      -0.00708555       0.00247405       0.00831317 </v>
   <v>      -0.00124281       0.00206349       0.00314015 </v>
   <v>       0.00402891       0.00104478       0.00529751 </v>
   <v>       0.00174061      -0.00166803       0.00569214 </v>
   <v>      -0.00235653       0.00202909       0.00359940 </v>
   <v>      -0.00320928       0.00197851       0.00213639 </v>
   <v>      -0.00084396       0.00149871       0.00153076 </v>
   <v>      -0.00090534       0.00148753       0.00154024 </v>
  </varray>
  <varray name="stress" >
   <v>      -8.68491300       0.00885268      -0.11581028 </v>
   <v>       0.00885265      -2.08357834      -0.03569083 </v>
   <v>      -0.11581016      -0.03569077      -1.02740827 </v>
  </varray>
  <energy>
   <i name="e_fr_energy">   -158.05757222 </i>
   <i name="e_wo_entrp">   -158.01153216 </i>
   <i name="e_0_energy">     -0.09208012 </i>
  </energy>
  <time name="totalsc">   67.47   67.72</time>
 </calculation>
[...]
       <r>    -8.7532     1.2807     0.1103 </r>
       <r>    -8.6951     2.0768     0.2310 </r>
       <r>    -8.6369     2.7075     0.3885 </r>
       <r>    -8.5787     3.4918     0.5915 </r>
       <r>    -8.5206     3.6576     0.8042 </r>
       <r>    -8.4624     2.5852     0.9545 </r>
       <r>    -8.4043     1.5337     1.0437 </r>
       <r>    -8.3461     1.2851     1.1185 </r>
       <r>    -8.2880     1.6332     1.2134 </r>
       <r>    -8.2298     2.7936     1.3759 </r>
       <r>    -8.1717     4.4185     1.6328 </r>
       <r>    -8.1135     5.7059     1.9646 </r>
       <r>    -8.0554     6.0253     2.3150 </r>
       <r>    -7.9972     4.9687     2.6039 </r>
       <r>    -7.9391     3.5934     2.8129 </r>
       <r>    -7.8809     3.0737     2.9916 </r>
       <r>    -7.8228     3.9939     3.2239 </r>
       <r>    -7.7646     5.7897     3.5606 </r>
       <r>    -7.7065     6.2003     3.9211 </r>
       <r>    -7.6483     5.1833     4.2225 </r>
       <r>    -7.5902     4.5432     4.4867 </r>
       <r>    -7.5320     3.8602     4.7112 </r>
       <r>    -7.4739     3.3195     4.9042 </r>
       <r>    -7.4157     4.9305     5.1909 </r>
       <r>    -7.3576     7.4979     5.6269 </r>
       <r>    -7.2994     7.5677     6.0670 </r>
       <r>    -7.2413     5.6019     6.3928 </r>
       <r>    -7.1831     4.3799     6.6474 </r>
       <r>    -7.1250     4.2433     6.8942 </r>
       <r>    -7.0668     4.4403     7.1524 </r>
       <r>    -7.0087     5.5645     7.4760 </r>
       <r>    -6.9505     7.8907     7.9348 </r>
       <r>    -6.8924     9.3501     8.4785 </r>
       <r>    -6.8342     8.7491     8.9873 </r>
       <r>    -6.7761     7.2277     9.4076 </r>
       <r>    -6.7179     6.1031     9.7625 </r>
       <r>    -6.6598     6.8635    10.1616 </r>
       <r>    -6.6016     9.6252    10.7213 </r>
       <r>    -6.5435    11.5204    11.3912 </r>
       <r>    -6.4853    10.5831    12.0067 </r>
       <r>    -6.4272     8.6968    12.5124 </r>
       <r>    -6.3690     7.2546    12.9343 </r>
       <r>    -6.3109     6.2269    13.2963 </r>
       <r>    -6.2527     6.2735    13.6612 </r>
       <r>    -6.1946     7.4558    14.0947 </r>
       <r>    -6.1364     9.7814    14.6635 </r>
       <r>    -6.0783    12.6728    15.4004 </r>
       <r>    -6.0201    14.1592    16.2238 </r>
       <r>    -5.9620    13.8981    17.0320 </r>
       <r>    -5.9038    13.4587    17.8146 </r>
       <r>    -5.8457    13.6150    18.6064 </r>
       <r>    -5.7875    14.8017    19.4671 </r>
       <r>    -5.7294    16.9109    20.4505 </r>
       <r>    -5.6712    17.7777    21.4842 </r>
       <r>    -5.6131    15.7593    22.4007 </r>
       <r>    -5.5549    12.8518    23.1480 </r>
       <r>    -5.4968    10.8547    23.7792 </r>
       <r>    -5.4386     9.5036    24.3319 </r>
       <r>    -5.3805     8.1635    24.8066 </r>
       <r>    -5.3223     6.8419    25.2044 </r>
       <r>    -5.2642     7.0386    25.6137 </r>
       <r>    -5.2060    10.3559    26.2159 </r>
       <r>    -5.1479    16.1783    27.1567 </r>
       <r>    -5.0897    21.3411    28.3977 </r>
       <r>    -5.0316    22.1709    29.6870 </r>
       <r>    -4.9734    18.9224    30.7873 </r>
       <r>    -4.9153    15.6292    31.6962 </r>
       <r>    -4.8571    15.9431    32.6233 </r>
       <r>    -4.7990    19.8301    33.7764 </r>
       <r>    -4.7408    25.0257    35.2317 </r>
       <r>    -4.6827    31.1313    37.0420 </r>
       <r>    -4.6245    36.7365    39.1782 </r>
       <r>    -4.5664    38.0086    41.3884 </r>
       <r>    -4.5082    37.6210    43.5761 </r>
       <r>    -4.4500    42.1166    46.0252 </r>
       <r>    -4.3919    48.6122    48.8521 </r>
       <r>    -4.3337    50.5730    51.7929 </r>
       <r>    -4.2756    51.4902    54.7871 </r>
       <r>    -4.2174    56.6389    58.0807 </r>
       <r>    -4.1593    65.3599    61.8815 </r>
       <r>    -4.1011    76.2298    66.3143 </r>
       <r>    -4.0430    90.0129    71.5486 </r>
       <r>    -3.9848   105.5897    77.6887 </r>
       <r>    -3.9267   114.2130    84.3303 </r>
       <r>    -3.8685   109.7300    90.7111 </r>
       <r>    -3.8104   101.7306    96.6268 </r>
       <r>    -3.7522   101.3506   102.5204 </r>
       <r>    -3.6941   102.5437   108.4834 </r>
       <r>    -3.6359    99.2126   114.2527 </r>
       <r>    -3.5778    98.0138   119.9523 </r>
       <r>    -3.5196   100.8612   125.8174 </r>
       <r>    -3.4615   104.0347   131.8671 </r>
       <r>    -3.4033   109.6051   138.2407 </r>
       <r>    -3.3452   119.3384   145.1804 </r>
       <r>    -3.2870   129.2597   152.6969 </r>
       <r>    -3.2289   136.0249   160.6068 </r>
       <r>    -3.1707   139.4802   168.7177 </r>
       <r>    -3.1126   140.3388   176.8785 </r>
       <r>    -3.0544   138.5361   184.9345 </r>
       <r>    -2.9963   135.6161   192.8207 </r>
       <r>    -2.9381   136.7095   200.7704 </r>
       <r>    -2.8800   146.5556   209.2927 </r>
       <r>    -2.8218   166.8582   218.9956 </r>
       <r>    -2.7637   192.6157   230.1964 </r>
       <r>    -2.7055   208.0702   242.2958 </r>
       <r>    -2.6474   203.0980   254.1061 </r>
       <r>    -2.5892   187.3637   265.0014 </r>
       <r>    -2.5311   174.1711   275.1296 </r>
       <r>    -2.4729   165.9100   284.7774 </r>
       <r>    -2.4148   166.1441   294.4388 </r>
       <r>    -2.3566   183.6086   305.1158 </r>
       <r>    -2.2985   208.8704   317.2617 </r>
       <r>    -2.2403   215.7085   329.8053 </r>
       <r>    -2.1822   197.8696   341.3116 </r>
       <r>    -2.1240   179.7221   351.7625 </r>
       <r>    -2.0659   181.9571   362.3435 </r>
       <r>    -2.0077   200.4400   373.9992 </r>
       <r>    -1.9496   218.5722   386.7093 </r>
       <r>    -1.8914   226.5678   399.8844 </r>
       <r>    -1.8333   228.3050   413.1605 </r>
       <r>    -1.7751   233.3252   426.7285 </r>
       <r>    -1.7170   241.5638   440.7756 </r>
       <r>    -1.6588   244.5006   454.9935 </r>
       <r>    -1.6007   238.8875   468.8850 </r>
       <r>    -1.5425   221.8584   481.7862 </r>
       <r>    -1.4844   183.1097   492.4342 </r>
       <r>    -1.4262   124.9051   499.6975 </r>
       <r>    -1.3681    73.2445   503.9567 </r>
       <r>    -1.3099    44.4925   506.5440 </r>
       <r>    -1.2518    32.3146   508.4231 </r>
       <r>    -1.1936    27.7109   510.0345 </r>
       <r>    -1.1355    27.3348   511.6240 </r>
       <r>    -1.0773    29.4269   513.3352 </r>
       <r>    -1.0192    29.2578   515.0366 </r>
       <r>    -0.9610    24.4190   516.4566 </r>
       <r>    -0.9029    19.6038   517.5966 </r>
       <r>    -0.8447    19.5901   518.7357 </r>
       <r>    -0.7866    21.6665   519.9957 </r>
       <r>    -0.7284    20.1981   521.1702 </r>
       <r>    -0.6703    14.7824   522.0298 </r>
       <r>    -0.6121     9.5823   522.5870 </r>
       <r>    -0.5540     8.3402   523.0720 </r>
       <r>    -0.4958    10.5957   523.6882 </r>
       <r>    -0.4377    12.8395   524.4348 </r>
       <r>    -0.3795    15.0816   525.3118 </r>
       <r>    -0.3213    18.5682   526.3915 </r>
       <r>    -0.2632    20.4579   527.5812 </r>
       <r>    -0.2050    19.8218   528.7338 </r>
       <r>    -0.1469    19.4627   529.8656 </r>
       <r>    -0.0887    20.1875   531.0395 </r>
       <r>    -0.0306    19.3135   532.1626 </r>
       <r>     0.0276    15.6136   533.0706 </r>
       <r>     0.0857    10.9974   533.7101 </r>
       <r>     0.1439     9.0844   534.2383 </r>
       <r>     0.2020    12.6082   534.9715 </r>
       <r>     0.2602    19.3286   536.0955 </r>
       <r>     0.3183    23.1743   537.4431 </r>
       <r>     0.3765    21.8678   538.7147 </r>
       <r>     0.4346    18.4999   539.7905 </r>
       <r>     0.4928    15.0910   540.6680 </r>
       <r>     0.5509    11.4794   541.3356 </r>
       <r>     0.6091     8.8308   541.8491 </r>
       <r>     0.6672     9.9229   542.4261 </r>
       <r>     0.7254    14.1362   543.2481 </r>
       <r>     0.7835    17.0090   544.2372 </r>
       <r>     0.8417    16.4321   545.1928 </r>
       <r>     0.8998    13.9687   546.0051 </r>
       <r>     0.9580    11.6878   546.6847 </r>
       <r>     1.0161    10.4861   547.2945 </r>
       <r>     1.0743    10.8573   547.9259 </r>
       <r>     1.1324    12.5114   548.6534 </r>
       <r>     1.1906    13.4623   549.4362 </r>
       <r>     1.2487    12.9166   550.1873 </r>
       <r>     1.3069    13.7695   550.9881 </r>
       <r>     1.3650    17.1917   551.9878 </r>
       <r>     1.4232    19.0503   553.0956 </r>
       <r>     1.4813    18.5798   554.1760 </r>
       <r>     1.5395    20.0058   555.3393 </r>
       <r>     1.5976    21.7842   556.6061 </r>
       <r>     1.6558    19.1392   557.7191 </r>
       <r>     1.7139    13.7500   558.5186 </r>
       <r>     1.7721     9.8810   559.0932 </r>
       <r>     1.8302     8.3203   559.5770 </r>
       <r>     1.8884     8.3213   560.0609 </r>
       <r>     1.9465    10.0792   560.6470 </r>
       <r>     2.0047    13.8177   561.4506 </r>
       <r>     2.0628    17.3524   562.4596 </r>
       <r>     2.1210    17.9384   563.5027 </r>
       <r>     2.1791    15.9315   564.4292 </r>
       <r>     2.2373    13.3511   565.2056 </r>
       <r>     2.2954    11.9968   565.9032 </r>
       <r>     2.3536    12.1954   566.6123 </r>
       <r>     2.4117    12.8700   567.3607 </r>
       <r>     2.4699    12.6867   568.0985 </r>
       <r>     2.5280    12.3718   568.8179 </r>
       <r>     2.5862    12.1645   569.5253 </r>
       <r>     2.6443    11.7487   570.2085 </r>
       <r>     2.7025    12.6810   570.9459 </r>
       <r>     2.7606    14.6053   571.7952 </r>
       <r>     2.8188    14.7372   572.6522 </r>
       <r>     2.8769    12.9971   573.4080 </r>
       <r>     2.9351    12.0720   574.1100 </r>
       <r>     2.9932    12.4457   574.8337 </r>
       <r>     3.0514    12.3453   575.5516 </r>
       <r>     3.1095    11.3709   576.2128 </r>
       <r>     3.1677    10.7559   576.8383 </r>
       <r>     3.2258    11.6502   577.5157 </r>
       <r>     3.2840    15.2569   578.4029 </r>
       <r>     3.3421    20.7385   579.6089 </r>
       <r>     3.4003    23.5274   580.9770 </r>
       <r>     3.4584    22.2657   582.2718 </r>
       <r>     3.5166    20.2798   583.4511 </r>
       <r>     3.5747    18.4485   584.5239 </r>
       <r>     3.6329    17.2392   585.5263 </r>
       <r>     3.6910    18.5370   586.6043 </r>
       <r>     3.7492    19.7566   587.7531 </r>
       <r>     3.8074    17.7570   588.7857 </r>
       <r>     3.8655    14.9256   589.6537 </r>
       <r>     3.9237    14.5733   590.5011 </r>
       <r>     3.9818    16.6633   591.4701 </r>
       <r>     4.0400    18.5576   592.5492 </r>
       <r>     4.0981    19.6710   593.6931 </r>
       <r>     4.1563    22.0588   594.9758 </r>
       <r>     4.2144    25.6809   596.4692 </r>
       <r>     4.2726    27.3824   598.0615 </r>
       <r>     4.3307    24.4325   599.4823 </r>
       <r>     4.3889    19.9456   600.6421 </r>
       <r>     4.4470    19.2774   601.7631 </r>
       <r>     4.5052    20.5311   602.9570 </r>
       <r>     4.5633    19.5977   604.0966 </r>
       <r>     4.6215    17.7289   605.1276 </r>
       <r>     4.6796    16.9375   606.1125 </r>
       <r>     4.7378    17.6403   607.1383 </r>
       <r>     4.7959    20.3980   608.3245 </r>
       <r>     4.8541    26.4934   609.8651 </r>
       <r>     4.9122    34.3893   611.8648 </r>
       <r>     4.9704    36.6870   613.9982 </r>
       <r>     5.0285    30.1194   615.7497 </r>
       <r>     5.0867    20.4721   616.9402 </r>
       <r>     5.1448    13.3129   617.7143 </r>
       <r>     5.2030    10.7052   618.3368 </r>
       <r>     5.2611    11.7210   619.0184 </r>
       <r>     5.3193    13.8716   619.8251 </r>
       <r>     5.3774    16.9558   620.8110 </r>
       <r>     5.4356    20.4971   622.0030 </r>
       <r>     5.4937    22.2290   623.2956 </r>
       <r>     5.5519    21.7720   624.5617 </r>
       <r>     5.6100    21.5234   625.8133 </r>
       <r>     5.6682    23.5056   627.1801 </r>
       <r>     5.7263    26.3468   628.7122 </r>
       <r>     5.7845    26.8738   630.2749 </r>
       <r>     5.8426    24.2932   631.6876 </r>
       <r>     5.9008    21.6481   632.9464 </r>
       <r>     5.9589    20.3590   634.1303 </r>
       <r>     6.0171    18.6155   635.2128 </r>
       <r>     6.0752    15.6368   636.1221 </r>
       <r>     6.1334    13.0805   636.8828 </r>
       <r>     6.1915    12.3658   637.6019 </r>
       <r>     6.2497    11.4907   638.2700 </r>
       <r>     6.3078     7.9908   638.7347 </r>
       <r>     6.3660     3.7581   638.9533 </r>
       <r>     6.4241     1.8703   639.0620 </r>
       <r>     6.4823     2.2532   639.1930 </r>
       <r>     6.5404     3.0073   639.3679 </r>
       <r>     6.5986     3.0799   639.5470 </r>
       <r>     6.6567     2.7468   639.7067 </r>
       <r>     6.7149     2.4002   639.8463 </r>
       <r>     6.7730     1.6959   639.9449 </r>
       <r>     6.8312     0.7430   639.9881 </r>
       <r>     6.8893     0.1793   639.9986 </r>
       <r>     6.9475     0.0230   639.9999 </r>
       <r>     7.0056     0.0015   640.0000 </r>
       <r>     7.0638     0.0001   640.0000 </r>
       <r>     7.1219     0.0000   640.0000 </r>
       <r>     7.1801     0.0000   640.0000 </r>
       <r>     7.2382     0.0000   640.0000 </r>
       <r>     7.2964     0.0000   640.0000 </r>
       <r>     7.3545     0.0000   640.0000 </r>
       <r>     7.4127     0.0000   640.0000 </r>
       <r>     7.4708     0.0000   640.0000 </r>
       <r>     7.5290     0.0000   640.0000 </r>
       <r>     7.5871     0.0000   640.0000 </r>
       <r>     7.6453     0.0000   640.0000 </r>
       <r>     7.7034     0.0000   640.0000 </r>
      </set>
     </set>
    </array>
   </total>
  </dos>
 </calculation>
 <structure name="finalpos" >
  <crystal>
   <varray name="basis" >
    <v>      15.33600000       0.00000000       0.00000000 </v>
    <v>       0.00000000       5.11200000       0.00000000 </v>
    <v>       0.00000000       0.00000000      20.50000000 </v>
   </varray>
   <i name="volume">   1607.15145600 </i>
   <varray name="rec_basis" >
    <v>       0.06520605       0.00000000       0.00000000 </v>
    <v>       0.00000000       0.19561815       0.00000000 </v>
    <v>       0.00000000       0.00000000       0.04878049 </v>
   </varray>
  </crystal>
  <varray name="positions" >
   <v>       0.08333333       0.30868544       0.45401780 </v>
   <v>       0.25000000       0.30868544       0.45401780 </v>
   <v>       0.41666667       0.30868544       0.45401780 </v>
   <v>       0.58333333       0.30868544       0.45401780 </v>
   <v>       0.75000000       0.30868544       0.45401780 </v>
   <v>       0.91666667       0.30868544       0.45401780 </v>
   <v>       0.08333333       0.80868545       0.45401780 </v>
   <v>       0.25000000       0.80868545       0.45401780 </v>
   <v>       0.41666667       0.80868545       0.45401780 </v>
   <v>       0.58333333       0.80868545       0.45401780 </v>
   <v>       0.75000000       0.80868545       0.45401780 </v>
   <v>       0.91666667       0.80868545       0.45401780 </v>
   <v>       0.00000000       0.05868545       0.54218194 </v>
   <v>       0.16666667       0.05868545       0.54218194 </v>
   <v>       0.33333333       0.05868545       0.54218194 </v>
   <v>       0.50000000       0.05868545       0.54218194 </v>
   <v>       0.66666667       0.05868545       0.54218194 </v>
   <v>       0.83333333       0.05868545       0.54218194 </v>
   <v>       0.00000000       0.55868546       0.54218194 </v>
   <v>       0.16666667       0.55868546       0.54218194 </v>
   <v>       0.33333333       0.55868546       0.54218194 </v>
   <v>       0.50000000       0.55868546       0.54218194 </v>
   <v>       0.66666667       0.55868546       0.54218194 </v>
   <v>       0.83333333       0.55868546       0.54218194 </v>
   <v>       0.08457947       0.30914522       0.63447144 </v>
   <v>       0.25432145       0.30889088       0.63649075 </v>
   <v>       0.41912143       0.30830269       0.63118685 </v>
   <v>       0.58132327       0.30871628       0.63160630 </v>
   <v>       0.74584358       0.30884295       0.63689187 </v>
   <v>       0.91545731       0.30896623       0.63440848 </v>
   <v>       0.08457977       0.80914568       0.63447145 </v>
   <v>       0.25432196       0.80889127       0.63649078 </v>
   <v>       0.41912224       0.80830261       0.63118688 </v>
   <v>       0.58132425       0.80871664       0.63160600 </v>
   <v>       0.74584422       0.80884375       0.63689177 </v>
   <v>       0.91545762       0.80896681       0.63440849 </v>
   <v>       0.00072760       0.05870912       0.72254756 </v>
   <v>       0.17111314       0.05916198       0.72300383 </v>
   <v>       0.34506149       0.05889436       0.72538481 </v>
   <v>       0.49772274       0.31023490       0.74694373 </v>
   <v>       0.65251547       0.05970512       0.72826724 </v>
   <v>       0.83076714       0.05846006       0.72281104 </v>
   <v>       0.00072709       0.55870907       0.72254706 </v>
   <v>       0.17111286       0.55916209       0.72300352 </v>
   <v>       0.34506081       0.55889445       0.72538471 </v>
   <v>       0.49772278       0.81023446       0.74694333 </v>
   <v>       0.65251474       0.55970557       0.72826703 </v>
   <v>       0.83076627       0.55845993       0.72281050 </v>
   <v>       0.43512494       0.06040119       0.77856159 </v>
   <v>       0.43512411       0.56040216       0.77856132 </v>
   <v>       0.60895952       0.80998309       0.77355288 </v>
   <v>       0.60896041       0.30998292       0.77355282 </v>
  </varray>
  <varray name="selective"  type="logical" >
   <v type="logical" >  F  F  F </v>
   <v type="logical" >  F  F  F </v>
   <v type="logical" >  F  F  F </v>
   <v type="logical" >  F  F  F </v>
   <v type="logical" >  F  F  F </v>
   <v type="logical" >  F  F  F </v>
   <v type="logical" >  F  F  F </v>
   <v type="logical" >  F  F  F </v>
   <v type="logical" >  F  F  F </v>
   <v type="logical" >  F  F  F </v>
   <v type="logical" >  F  F  F </v>
   <v type="logical" >  F  F  F </v>
   <v type="logical" >  F  F  F </v>
   <v type="logical" >  F  F  F </v>
   <v type="logical" >  F  F  F </v>
   <v type="logical" >  F  F  F </v>
   <v type="logical" >  F  F  F </v>
   <v type="logical" >  F  F  F </v>
   <v type="logical" >  F  F  F </v>
   <v type="logical" >  F  F  F </v>
   <v type="logical" >  F  F  F </v>
   <v type="logical" >  F  F  F </v>
   <v type="logical" >  F  F  F </v>
   <v type="logical" >  F  F  F </v>
   <v type="logical" >  T  T  T </v>
   <v type="logical" >  T  T  T </v>
   <v type="logical" >  T  T  T </v>
   <v type="logical" >  T  T  T </v>
   <v type="logical" >  T  T  T </v>
   <v type="logical" >  T  T  T </v>
   <v type="logical" >  T  T  T </v>
   <v type="logical" >  T  T  T </v>
   <v type="logical" >  T  T  T </v>
   <v type="logical" >  T  T  T </v>
   <v type="logical" >  T  T  T </v>
   <v type="logical" >  T  T  T </v>
   <v type="logical" >  T  T  T </v>
   <v type="logical" >  T  T  T </v>
   <v type="logical" >  T  T  T </v>
   <v type="logical" >  T  T  T </v>
   <v type="logical" >  T  T  T </v>
   <v type="logical" >  T  T  T </v>
   <v type="logical" >  T  T  T </v>
   <v type="logical" >  T  T  T </v>
   <v type="logical" >  T  T  T </v>
   <v type="logical" >  T  T  T </v>
   <v type="logical" >  T  T  T </v>
   <v type="logical" >  T  T  T </v>
   <v type="logical" >  T  T  T </v>
   <v type="logical" >  T  T  T </v>
   <v type="logical" >  T  T  T </v>
   <v type="logical" >  T  T  T </v>
  </varray>
  <nose>
   <v>      -3.00000000       0.00000000       0.00010000       0.00010000 </v>
  </nose>
 </structure>
</modeling>
