  52  52   0   0
  0.3090676E+02  0.1533600E-08  0.5112000E-09  0.2050000E-08  0.4000000E-15
  1.000000000000000E-004
  CAR 
 opt-3                                   
      7.73066327     -9.74199830  301     -0.03952023      1.00000000
     -9.742  0.0000E+00  0.0000E+00
     -9.684  0.0000E+00  0.0000E+00
     -9.626  0.0000E+00  0.0000E+00
     -9.567  0.0000E+00  0.0000E+00
     -9.509  0.0000E+00  0.0000E+00
     -9.451  0.0000E+00  0.0000E+00
     -9.393  0.0000E+00  0.0000E+00
     -9.334  0.0000E+00  0.0000E+00
     -9.276  0.1226E-15  0.7142E-17
     -9.218  0.4918E-13  0.2871E-14
     -9.160  0.1017E-10  0.5953E-12
     -9.101  0.1088E-08  0.6396E-10
     -9.043  0.6051E-07  0.3588E-08
     -8.985  0.1763E-05  0.1063E-06
     -8.927  0.2720E-04  0.1690E-05
     -8.868  0.2250E-03  0.1480E-04
     -8.810  0.1018E-02  0.7409E-04
     -8.752  0.2608E-02  0.2260E-03
     -8.694  0.4191E-02  0.4701E-03
     -8.635  0.5457E-02  0.7880E-03
     -8.577  0.7028E-02  0.1197E-02
     -8.519  0.7278E-02  0.1621E-02
     -8.461  0.5075E-02  0.1917E-02
     -8.402  0.3018E-02  0.2092E-02
     -8.344  0.2572E-02  0.2242E-02
     -8.286  0.3320E-02  0.2436E-02
     -8.228  0.5709E-02  0.2768E-02
     -8.169  0.8972E-02  0.3291E-02
     -8.111  0.1150E-01  0.3961E-02
     -8.053  0.1201E-01  0.4660E-02
     -7.995  0.9793E-02  0.5231E-02
     -7.936  0.7082E-02  0.5643E-02
     -7.878  0.6160E-02  0.6002E-02
     -7.820  0.8151E-02  0.6477E-02
     -7.762  0.1172E-01  0.7159E-02
     -7.704  0.1233E-01  0.7877E-02
     -7.645  0.1027E-01  0.8475E-02
     -7.587  0.9040E-02  0.9001E-02
     -7.529  0.7620E-02  0.9445E-02
     -7.471  0.6701E-02  0.9835E-02
     -7.412  0.1021E-01  0.1043E-01
     -7.354  0.1520E-01  0.1132E-01
     -7.296  0.1493E-01  0.1218E-01
     -7.238  0.1095E-01  0.1282E-01
     -7.179  0.8687E-02  0.1333E-01
     -7.121  0.8491E-02  0.1382E-01
     -7.063  0.8950E-02  0.1434E-01
     -7.005  0.1141E-01  0.1501E-01
     -6.946  0.1612E-01  0.1595E-01
     -6.888  0.1875E-01  0.1704E-01
     -6.830  0.1729E-01  0.1805E-01
     -6.772  0.1421E-01  0.1887E-01
     -6.713  0.1215E-01  0.1958E-01
     -6.655  0.1409E-01  0.2040E-01
     -6.597  0.1976E-01  0.2155E-01
     -6.539  0.2309E-01  0.2290E-01
     -6.480  0.2080E-01  0.2411E-01
     -6.422  0.1709E-01  0.2511E-01
     -6.364  0.1429E-01  0.2594E-01
     -6.306  0.1236E-01  0.2666E-01
     -6.247  0.1267E-01  0.2740E-01
     -6.189  0.1523E-01  0.2828E-01
     -6.131  0.2012E-01  0.2945E-01
     -6.073  0.2584E-01  0.3096E-01
     -6.014  0.2842E-01  0.3261E-01
     -5.956  0.2771E-01  0.3423E-01
     -5.898  0.2687E-01  0.3579E-01
     -5.840  0.2733E-01  0.3738E-01
     -5.782  0.3001E-01  0.3913E-01
     -5.723  0.3428E-01  0.4113E-01
     -5.665  0.3537E-01  0.4319E-01
     -5.607  0.3079E-01  0.4498E-01
     -5.549  0.2511E-01  0.4644E-01
     -5.490  0.2136E-01  0.4769E-01
     -5.432  0.1872E-01  0.4878E-01
     -5.374  0.1600E-01  0.4971E-01
     -5.316  0.1349E-01  0.5050E-01
     -5.257  0.1450E-01  0.5134E-01
     -5.199  0.2190E-01  0.5262E-01
     -5.141  0.3382E-01  0.5459E-01
     -5.083  0.4343E-01  0.5712E-01
     -5.024  0.4387E-01  0.5967E-01
     -4.966  0.3684E-01  0.6182E-01
     -4.908  0.3086E-01  0.6361E-01
     -4.850  0.3257E-01  0.6551E-01
     -4.791  0.4092E-01  0.6789E-01
     -4.733  0.5152E-01  0.7089E-01
     -4.675  0.6397E-01  0.7462E-01
     -4.617  0.7440E-01  0.7895E-01
     -4.558  0.7577E-01  0.8337E-01
     -4.500  0.7575E-01  0.8778E-01
     -4.442  0.8618E-01  0.9280E-01
     -4.384  0.9839E-01  0.9853E-01
     -4.325  0.1012E+00  0.1044E+00
     -4.267  0.1039E+00  0.1105E+00
     -4.209  0.1155E+00  0.1172E+00
     -4.151  0.1336E+00  0.1250E+00
     -4.093  0.1561E+00  0.1341E+00
     -4.034  0.1847E+00  0.1448E+00
     -3.976  0.2152E+00  0.1574E+00
     -3.918  0.2287E+00  0.1707E+00
     -3.860  0.2166E+00  0.1833E+00
     -3.801  0.2023E+00  0.1951E+00
     -3.743  0.2035E+00  0.2069E+00
     -3.685  0.2045E+00  0.2188E+00
     -3.627  0.1974E+00  0.2303E+00
     -3.568  0.1966E+00  0.2418E+00
     -3.510  0.2028E+00  0.2536E+00
     -3.452  0.2093E+00  0.2658E+00
     -3.394  0.2220E+00  0.2787E+00
     -3.335  0.2423E+00  0.2928E+00
     -3.277  0.2613E+00  0.3080E+00
     -3.219  0.2737E+00  0.3240E+00
     -3.161  0.2796E+00  0.3403E+00
     -3.102  0.2804E+00  0.3566E+00
     -3.044  0.2760E+00  0.3727E+00
     -2.986  0.2707E+00  0.3884E+00
     -2.928  0.2755E+00  0.4045E+00
     -2.869  0.2989E+00  0.4219E+00
     -2.811  0.3430E+00  0.4419E+00
     -2.753  0.3935E+00  0.4648E+00
     -2.695  0.4173E+00  0.4891E+00
     -2.636  0.4010E+00  0.5124E+00
     -2.578  0.3689E+00  0.5339E+00
     -2.520  0.3445E+00  0.5540E+00
     -2.462  0.3300E+00  0.5732E+00
     -2.403  0.3361E+00  0.5928E+00
     -2.345  0.3773E+00  0.6148E+00
     -2.287  0.4247E+00  0.6395E+00
     -2.229  0.4273E+00  0.6644E+00
     -2.171  0.3866E+00  0.6869E+00
     -2.112  0.3566E+00  0.7077E+00
     -2.054  0.3698E+00  0.7292E+00
     -1.996  0.4094E+00  0.7531E+00
     -1.938  0.4422E+00  0.7788E+00
     -1.879  0.4542E+00  0.8053E+00
     -1.821  0.4577E+00  0.8319E+00
     -1.763  0.4701E+00  0.8593E+00
     -1.705  0.4857E+00  0.8876E+00
     -1.646  0.4880E+00  0.9160E+00
     -1.588  0.4729E+00  0.9436E+00
     -1.530  0.4313E+00  0.9687E+00
     -1.472  0.3428E+00  0.9887E+00
     -1.413  0.2240E+00  0.1002E+01
     -1.355  0.1298E+00  0.1009E+01
     -1.297  0.8149E-01  0.1014E+01
     -1.239  0.6165E-01  0.1018E+01
     -1.180  0.5459E-01  0.1021E+01
     -1.122  0.5543E-01  0.1024E+01
     -1.064  0.5956E-01  0.1027E+01
     -1.006  0.5697E-01  0.1031E+01
     -0.947  0.4609E-01  0.1033E+01
     -0.889  0.3828E-01  0.1036E+01
     -0.831  0.4026E-01  0.1038E+01
     -0.773  0.4353E-01  0.1041E+01
     -0.714  0.3829E-01  0.1043E+01
     -0.656  0.2666E-01  0.1044E+01
     -0.598  0.1769E-01  0.1045E+01
     -0.540  0.1739E-01  0.1046E+01
     -0.481  0.2248E-01  0.1048E+01
     -0.423  0.2658E-01  0.1049E+01
     -0.365  0.3177E-01  0.1051E+01
     -0.307  0.3863E-01  0.1053E+01
     -0.249  0.4090E-01  0.1056E+01
     -0.190  0.3919E-01  0.1058E+01
     -0.132  0.3924E-01  0.1060E+01
     -0.074  0.4046E-01  0.1063E+01
     -0.016  0.3719E-01  0.1065E+01
      0.043  0.2876E-01  0.1067E+01
      0.101  0.2015E-01  0.1068E+01
      0.159  0.1893E-01  0.1069E+01
      0.217  0.2860E-01  0.1070E+01
      0.276  0.4171E-01  0.1073E+01
      0.334  0.4649E-01  0.1076E+01
      0.392  0.4204E-01  0.1078E+01
      0.450  0.3515E-01  0.1080E+01
      0.509  0.2826E-01  0.1082E+01
      0.567  0.2109E-01  0.1083E+01
      0.625  0.1736E-01  0.1084E+01
      0.683  0.2188E-01  0.1085E+01
      0.742  0.3049E-01  0.1087E+01
      0.800  0.3434E-01  0.1089E+01
      0.858  0.3165E-01  0.1091E+01
      0.916  0.2650E-01  0.1092E+01
      0.975  0.2243E-01  0.1094E+01
      1.033  0.2083E-01  0.1095E+01
      1.091  0.2253E-01  0.1096E+01
      1.149  0.2591E-01  0.1098E+01
      1.208  0.2677E-01  0.1099E+01
      1.266  0.2572E-01  0.1101E+01
      1.324  0.2925E-01  0.1103E+01
      1.382  0.3619E-01  0.1105E+01
      1.441  0.3794E-01  0.1107E+01
      1.499  0.3740E-01  0.1109E+01
      1.557  0.4154E-01  0.1111E+01
      1.615  0.4305E-01  0.1114E+01
      1.673  0.3512E-01  0.1116E+01
      1.732  0.2461E-01  0.1117E+01
      1.790  0.1840E-01  0.1118E+01
      1.848  0.1634E-01  0.1119E+01
      1.906  0.1729E-01  0.1120E+01
      1.965  0.2214E-01  0.1122E+01
      2.023  0.3022E-01  0.1124E+01
      2.081  0.3580E-01  0.1126E+01
      2.139  0.3499E-01  0.1128E+01
      2.198  0.3015E-01  0.1129E+01
      2.256  0.2548E-01  0.1131E+01
      2.314  0.2384E-01  0.1132E+01
      2.372  0.2489E-01  0.1134E+01
      2.431  0.2583E-01  0.1135E+01
      2.489  0.2507E-01  0.1137E+01
      2.547  0.2468E-01  0.1138E+01
      2.605  0.2399E-01  0.1140E+01
      2.664  0.2368E-01  0.1141E+01
      2.722  0.2668E-01  0.1142E+01
      2.780  0.2990E-01  0.1144E+01
      2.838  0.2848E-01  0.1146E+01
      2.897  0.2498E-01  0.1147E+01
      2.955  0.2426E-01  0.1149E+01
      3.013  0.2507E-01  0.1150E+01
      3.071  0.2412E-01  0.1152E+01
      3.130  0.2211E-01  0.1153E+01
      3.188  0.2168E-01  0.1154E+01
      3.246  0.2509E-01  0.1156E+01
      3.304  0.3428E-01  0.1158E+01
      3.362  0.4448E-01  0.1160E+01
      3.421  0.4679E-01  0.1163E+01
      3.479  0.4302E-01  0.1165E+01
      3.537  0.3931E-01  0.1168E+01
      3.595  0.3565E-01  0.1170E+01
      3.654  0.3485E-01  0.1172E+01
      3.712  0.3849E-01  0.1174E+01
      3.770  0.3877E-01  0.1176E+01
      3.828  0.3321E-01  0.1178E+01
      3.887  0.2884E-01  0.1180E+01
      3.945  0.3034E-01  0.1182E+01
      4.003  0.3502E-01  0.1184E+01
      4.061  0.3794E-01  0.1186E+01
      4.120  0.4068E-01  0.1188E+01
      4.178  0.4679E-01  0.1191E+01
      4.236  0.5354E-01  0.1194E+01
      4.294  0.5362E-01  0.1197E+01
      4.353  0.4512E-01  0.1200E+01
      4.411  0.3831E-01  0.1202E+01
      4.469  0.3963E-01  0.1204E+01
      4.527  0.4088E-01  0.1207E+01
      4.586  0.3768E-01  0.1209E+01
      4.644  0.3456E-01  0.1211E+01
      4.702  0.3409E-01  0.1213E+01
      4.760  0.3684E-01  0.1215E+01
      4.819  0.4466E-01  0.1218E+01
      4.877  0.5940E-01  0.1221E+01
      4.935  0.7274E-01  0.1225E+01
      4.993  0.6985E-01  0.1230E+01
      5.052  0.5251E-01  0.1233E+01
      5.110  0.3431E-01  0.1235E+01
      5.168  0.2341E-01  0.1236E+01
      5.226  0.2166E-01  0.1237E+01
      5.284  0.2505E-01  0.1239E+01
      5.343  0.2996E-01  0.1240E+01
      5.401  0.3698E-01  0.1243E+01
      5.459  0.4311E-01  0.1245E+01
      5.517  0.4453E-01  0.1248E+01
      5.576  0.4302E-01  0.1250E+01
      5.634  0.4423E-01  0.1253E+01
      5.692  0.4968E-01  0.1256E+01
      5.750  0.5405E-01  0.1259E+01
      5.809  0.5198E-01  0.1262E+01
      5.867  0.4595E-01  0.1264E+01
      5.925  0.4196E-01  0.1267E+01
      5.983  0.3936E-01  0.1269E+01
      6.042  0.3475E-01  0.1271E+01
      6.100  0.2877E-01  0.1273E+01
      6.158  0.2533E-01  0.1274E+01
      6.216  0.2451E-01  0.1276E+01
      6.275  0.2052E-01  0.1277E+01
      6.333  0.1194E-01  0.1278E+01
      6.391  0.5062E-02  0.1278E+01
      6.449  0.3620E-02  0.1278E+01
      6.508  0.5166E-02  0.1279E+01
      6.566  0.6144E-02  0.1279E+01
      6.624  0.5619E-02  0.1279E+01
      6.682  0.4822E-02  0.1279E+01
      6.741  0.4318E-02  0.1280E+01
      6.799  0.3004E-02  0.1280E+01
      6.857  0.1246E-02  0.1280E+01
      6.915  0.2821E-03  0.1280E+01
      6.974  0.3404E-04  0.1280E+01
      7.032  0.2170E-05  0.1280E+01
      7.090  0.7270E-07  0.1280E+01
      7.148  0.1273E-08  0.1280E+01
      7.206  0.1160E-10  0.1280E+01
      7.265  0.5480E-13  0.1280E+01
      7.323  0.1341E-15  0.1280E+01
      7.381  0.0000E+00  0.1280E+01
      7.439  0.0000E+00  0.1280E+01
      7.498  0.0000E+00  0.1280E+01
      7.556  0.0000E+00  0.1280E+01
      7.614  0.0000E+00  0.1280E+01
      7.672  0.0000E+00  0.1280E+01
      7.731  0.0000E+00  0.1280E+01
