       N       E                     dE             d eps       ncg     rms          rms(c)
DAV:   1     0.475268129327E+04    0.47527E+04   -0.19252E+05  5120   0.173E+03
DAV:   2     0.457132067843E+03   -0.42955E+04   -0.41521E+04  5120   0.419E+02
DAV:   3    -0.152463210371E+03   -0.60960E+03   -0.55896E+03  5216   0.208E+02
DAV:   4    -0.191691673434E+03   -0.39228E+02   -0.37724E+02  5784   0.698E+01
DAV:   5    -0.192945908613E+03   -0.12542E+01   -0.12445E+01  6144   0.106E+01    0.474E+01
RMM:   6    -0.175816461395E+03    0.17129E+02   -0.43732E+02  5129   0.939E+01    0.269E+01
RMM:   7    -0.158632171164E+03    0.17184E+02   -0.74742E+01  5122   0.432E+01    0.452E+00
RMM:   8    -0.158590239677E+03    0.41931E-01   -0.34505E+00  5212   0.676E+00    0.491E+00
RMM:   9    -0.158169586080E+03    0.42065E+00   -0.98690E-01  5132   0.376E+00    0.213E+00
RMM:  10    -0.158120955533E+03    0.48631E-01   -0.17899E-01  5340   0.137E+00    0.128E+00
RMM:  11    -0.158078233160E+03    0.42722E-01   -0.97607E-02  5120   0.112E+00    0.436E-01
RMM:  12    -0.158066083971E+03    0.12149E-01   -0.25639E-02  5156   0.596E-01    0.362E-01
RMM:  13    -0.158060385972E+03    0.56980E-02   -0.10640E-02  5141   0.416E-01    0.165E-01
RMM:  14    -0.158055292403E+03    0.50936E-02   -0.44903E-03  5124   0.211E-01    0.120E-01
RMM:  15    -0.158054100106E+03    0.11923E-02   -0.12294E-03  5152   0.112E-01    0.915E-02
RMM:  16    -0.158053848488E+03    0.25162E-03   -0.12820E-03  5128   0.802E-02    0.515E-02
RMM:  17    -0.158054520199E+03   -0.67171E-03   -0.32279E-04  5130   0.525E-02    0.358E-02
RMM:  18    -0.158055639951E+03   -0.11198E-02   -0.19891E-04  4882   0.314E-02    0.208E-02
RMM:  19    -0.158056315139E+03   -0.67519E-03   -0.14822E-04  4884   0.291E-02    0.188E-02
RMM:  20    -0.158056535788E+03   -0.22065E-03   -0.48167E-05  3372   0.178E-02    0.822E-03
RMM:  21    -0.158056769977E+03   -0.23419E-03   -0.24526E-05  3055   0.140E-02    0.108E-02
RMM:  22    -0.158056995709E+03   -0.22573E-03   -0.32379E-05  3185   0.151E-02    0.519E-03
RMM:  23    -0.158057166579E+03   -0.17087E-03   -0.18131E-05  3013   0.116E-02    0.478E-03
RMM:  24    -0.158057276238E+03   -0.10966E-03   -0.49776E-06  2907   0.874E-03    0.342E-03
RMM:  25    -0.158057452530E+03   -0.17629E-03   -0.74974E-06  2985   0.630E-03    0.203E-03
RMM:  26    -0.158057501197E+03   -0.48667E-04   -0.24001E-06  2896   0.496E-03    0.165E-03
RMM:  27    -0.158057527548E+03   -0.26351E-04   -0.16082E-06  2828   0.320E-03    0.143E-03
RMM:  28    -0.158057536273E+03   -0.87252E-05   -0.63043E-07  2588   0.232E-03
   1 F= -.15805754E+03 E0= -.15801150E+03  d E =-.158058E+03
       N       E                     dE             d eps       ncg     rms          rms(c)
DAV:   1    -0.158057556960E+03   -0.29412E-04   -0.63625E-03  5408   0.147E-01    0.461E-03
RMM:   2    -0.158057565579E+03   -0.86198E-05   -0.89605E-05  4407   0.339E-02    0.351E-03
RMM:   3    -0.158057566595E+03   -0.10156E-05   -0.12929E-05  2713   0.117E-02    0.413E-03
RMM:   4    -0.158057566747E+03   -0.15185E-06   -0.36620E-06  2692   0.916E-03    0.314E-03
RMM:   5    -0.158057566698E+03    0.49433E-07   -0.87629E-07  2684   0.380E-03
   2 F= -.15805757E+03 E0= -.15801153E+03  d E =-.304246E-04
