 vasp.5.4.4.18Apr17-6-g9f103f2a35 (build Feb 10 2023 18:07:56) complex          
  
 executed on             LinuxIFC date 2023.04.08  07:36:19
 running on   16 total cores
 distrk:  each k-point on   16 cores,    1 groups
 distr:  one band on NCORES_PER_BAND=   4 cores,    4 groups


--------------------------------------------------------------------------------------------------------


 INCAR:
 POTCAR:    PAW_PBE Cu 22Jun2005                  
 POTCAR:    PAW_PBE H 15Jun2001                   
 POTCAR:    PAW_PBE Cu 22Jun2005                  
   VRHFIN =Cu: d10 p1                                                           
   LEXCH  = PE                                                                  
   EATOM  =  1390.9808 eV,  102.2342 Ry                                         
                                                                                
   TITEL  = PAW_PBE Cu 22Jun2005                                                
   LULTRA =        F    use ultrasoft PP ?                                      
   IUNSCR =        1    unscreen: 0-lin 1-nonlin 2-no                           
   RPACOR =    2.000    partial core radius                                     
   POMASS =   63.546; ZVAL   =   11.000    mass and valenz                      
   RCORE  =    2.300    outmost cutoff radius                                   
   RWIGS  =    2.200; RWIGS  =    1.164    wigner-seitz radius (au A)           
   ENMAX  =  295.446; ENMIN  =  221.585 eV                                      
   ICORE  =        3    local potential                                         
   LCOR   =        T    correct aug charges                                     
   LPAW   =        T    paw PP                                                  
   EAUG   =  586.980                                                            
   DEXC   =    0.000                                                            
   RMAX   =    2.344    core radius for proj-oper                               
   RAUG   =    1.300    factor for augmentation sphere                          
   RDEP   =    2.302    radius for radial grids                                 
   RDEPT  =    1.771    core radius for aug-charge                              
                                                                                
   Atomic configuration                                                         
    9 entries                                                                   
     n  l   j            E        occ.                                          
     1  0  0.50     -8850.2468   2.0000                                         
     2  0  0.50     -1062.3498   2.0000                                         
     2  1  1.50      -916.8226   6.0000                                         
     3  0  0.50      -114.6929   2.0000                                         
     3  1  1.50       -72.1325   6.0000                                         
     3  2  2.50        -5.0394  10.0000                                         
     4  0  0.50        -4.6097   1.0000                                         
     4  1  0.50        -4.0817   0.0000                                         
     4  3  2.50        -1.3606   0.0000                                         
   Description                                                                  
     l       E           TYP  RCUT    TYP  RCUT                                 
     2     -5.0393973     23  2.200                                             
     2     10.8846608     23  2.200                                             
     0     -4.6097109     23  2.200                                             
     0      8.2520465     23  2.200                                             
     1     -2.7211652     23  2.200                                             
     1     21.7055443     23  2.200                                             
     3      2.7211652     23  2.300                                             
  local pseudopotential read in
  partial core-charges read in
  partial kinetic energy density read in
  atomic valenz-charges read in
  non local Contribution for L=           2  read in
    real space projection operators read in
  non local Contribution for L=           2  read in
    real space projection operators read in
  non local Contribution for L=           0  read in
    real space projection operators read in
  non local Contribution for L=           0  read in
    real space projection operators read in
  non local Contribution for L=           1  read in
    real space projection operators read in
  non local Contribution for L=           1  read in
    real space projection operators read in
    PAW grid and wavefunctions read in
 
   number of l-projection  operators is LMAX  =           6
   number of lm-projection operators is LMMAX =          18
 
 POTCAR:    PAW_PBE H 15Jun2001                   
   VRHFIN =H: ultrasoft test                                                    
   LEXCH  = PE                                                                  
   EATOM  =    12.4884 eV,    0.9179 Ry                                         
                                                                                
   TITEL  = PAW_PBE H 15Jun2001                                                 
   LULTRA =        F    use ultrasoft PP ?                                      
   IUNSCR =        0    unscreen: 0-lin 1-nonlin 2-no                           
   RPACOR =    0.000    partial core radius                                     
   POMASS =    1.000; ZVAL   =    1.000    mass and valenz                      
   RCORE  =    1.100    outmost cutoff radius                                   
   RWIGS  =    0.700; RWIGS  =    0.370    wigner-seitz radius (au A)           
   ENMAX  =  250.000; ENMIN  =  200.000 eV                                      
   RCLOC  =    0.701    cutoff for local pot                                    
   LCOR   =        T    correct aug charges                                     
   LPAW   =        T    paw PP                                                  
   EAUG   =  400.000                                                            
   RMAX   =    1.123    core radius for proj-oper                               
   RAUG   =    1.200    factor for augmentation sphere                          
   RDEP   =    1.112    radius for radial grids                                 
   RDEPT  =    0.926    core radius for aug-charge                              
                                                                                
   Atomic configuration                                                         
    2 entries                                                                   
     n  l   j            E        occ.                                          
     1  0  0.50        -6.4927   1.0000                                         
     2  1  0.50        -3.4015   0.0000                                         
   Description                                                                  
     l       E           TYP  RCUT    TYP  RCUT                                 
     0     -6.4927494     23  1.100                                             
     0      6.8029130     23  1.100                                             
     1     -4.0817478     23  1.100                                             
  local pseudopotential read in
  atomic valenz-charges read in
  non local Contribution for L=           0  read in
    real space projection operators read in
  non local Contribution for L=           0  read in
    real space projection operators read in
  non local Contribution for L=           1  read in
    real space projection operators read in
    PAW grid and wavefunctions read in
 
   number of l-projection  operators is LMAX  =           3
   number of lm-projection operators is LMMAX =           5
 
 Optimization of the real space projectors (new method)

 maximal supplied QI-value         = 16.25
 optimisation between [QCUT,QGAM] = [ 10.24, 20.48] = [ 29.35,117.42] Ry 
 Optimized for a Real-space Cutoff    1.55 Angstroem

   l    n(q)    QCUT    max X(q) W(low)/X(q) W(high)/X(q)  e(spline) 
   2      9    10.239     4.610    0.85E-04    0.29E-03    0.14E-06
   2      9    10.239     8.522    0.15E-03    0.50E-03    0.27E-06
   0     10    10.239    51.609    0.45E-04    0.99E-04    0.10E-06
   0     10    10.239    27.747    0.40E-04    0.93E-04    0.97E-07
   1      9    10.239    20.408    0.15E-03    0.78E-05    0.15E-06
   1      9    10.239    13.425    0.13E-03    0.71E-05    0.14E-06
 Optimization of the real space projectors (new method)

 maximal supplied QI-value         = 34.20
 optimisation between [QCUT,QGAM] = [  9.92, 20.18] = [ 27.55,114.04] Ry 
 Optimized for a Real-space Cutoff    1.26 Angstroem

   l    n(q)    QCUT    max X(q) W(low)/X(q) W(high)/X(q)  e(spline) 
   0      8     9.919    19.460    0.50E-03    0.23E-03    0.29E-06
   0      8     9.919    12.209    0.48E-03    0.23E-03    0.28E-06
   1      7     9.919     4.655    0.17E-03    0.75E-03    0.30E-06

 ----------------------------------------------------------------------------- 
|                                                                             |
|  ADVICE TO THIS USER RUNNING 'VASP/VAMP'   (HEAR YOUR MASTER'S VOICE ...):  |
|                                                                             |
|      You enforced a specific xc-type in the INCAR file,                     |
|      a different type was found on the POTCAR file                          |
|          I HOPE YOU KNOW, WHAT YOU ARE  DOING                               |
|                                                                             |
 ----------------------------------------------------------------------------- 

  PAW_PBE Cu 22Jun2005                  :
 energy of atom  1       EATOM=-1390.9808
 kinetic energy error for atom=    0.0232 (will be added to EATOM!!)
  PAW_PBE H 15Jun2001                   :
 energy of atom  2       EATOM=  -12.4884
 kinetic energy error for atom=    0.0098 (will be added to EATOM!!)
 
 
 POSCAR: Cu  H                                   
  positions in direct lattice
  velocities in cartesian coordinates
 exchange correlation table for  LEXCH =        9
   RHO(1)=    0.500       N(1)  =     2000
   RHO(2)=  100.500       N(2)  =     4000

 VTST: version 3.2, (02/03/18)

 CHAIN: initializing optimizer
 
 OPT: Using VASP Conjugate-Gradient optimizer
 CHAIN: Read ICHAIN            0
 
 POSCAR: Cu  H                                   
  positions in direct lattice
  velocities in cartesian coordinates
 


--------------------------------------------------------------------------------------------------------


 ion  position               nearest neighbor table
   1  0.083  0.309  0.454-   6 2.56  13 2.56   7 2.56  14 2.56  19 2.56   2 2.56   7 2.56  20 2.56

   2  0.250  0.309  0.454-  14 2.56  15 2.56   8 2.56  20 2.56  21 2.56   3 2.56   8 2.56   1 2.56

   3  0.417  0.309  0.454-   4 2.56  16 2.56   9 2.56  15 2.56  22 2.56   2 2.56   9 2.56  21 2.56

   4  0.583  0.309  0.454-   3 2.56  16 2.56  10 2.56  17 2.56  22 2.56  10 2.56   5 2.56  23 2.56

   5  0.750  0.309  0.454-  17 2.56  18 2.56  11 2.56  23 2.56  24 2.56   6 2.56  11 2.56   4 2.56

   6  0.917  0.309  0.454-   1 2.56  13 2.56  12 2.56  18 2.56  19 2.56  12 2.56   5 2.56  24 2.56

   7  0.083  0.809  0.454-  12 2.56  19 2.56  13 2.56   1 2.56  20 2.56  14 2.56   8 2.56   1 2.56

   8  0.250  0.809  0.454-  20 2.56  21 2.56  14 2.56  15 2.56   2 2.56   7 2.56   9 2.56   2 2.56

   9  0.417  0.809  0.454-  10 2.56  22 2.56  16 2.56   3 2.56  21 2.56  15 2.56   8 2.56   3 2.56

  10  0.583  0.809  0.454-   9 2.56  22 2.56  16 2.56   4 2.56  23 2.56  17 2.56  11 2.56   4 2.56

  11  0.750  0.809  0.454-  23 2.56  24 2.56  17 2.56  18 2.56   5 2.56  10 2.56  12 2.56   5 2.56

  12  0.917  0.809  0.454-   7 2.56  19 2.56  13 2.56   6 2.56  24 2.56  18 2.56  11 2.56   6 2.56

  13  0.000  0.059  0.542-   1 2.56   6 2.56   7 2.56  12 2.56  19 2.56  14 2.56  18 2.56  19 2.56
                            36 2.62  31 2.62  30 2.63  25 2.63
  14  0.167  0.059  0.542-  15 2.56   2 2.56   8 2.56  20 2.56   1 2.56   7 2.56  20 2.56  13 2.56
                            31 2.61  25 2.61  32 2.68  26 2.68
  15  0.333  0.059  0.542-  14 2.56   2 2.56   8 2.56  21 2.56   3 2.56   9 2.56  16 2.56  21 2.56
                            27 2.59  33 2.59  32 2.61  26 2.62
  16  0.500  0.059  0.542-  27 2.55  33 2.55   3 2.56   4 2.56   9 2.56  10 2.56  22 2.56  22 2.56
                            15 2.56  17 2.56  34 2.56  28 2.56
  17  0.667  0.059  0.542-  18 2.56   5 2.56  11 2.56  23 2.56   4 2.56  10 2.56  23 2.56  16 2.56
                            34 2.59  28 2.59  35 2.62  29 2.62
  18  0.833  0.059  0.542-  17 2.56   5 2.56  11 2.56  24 2.56   6 2.56  12 2.56  24 2.56  13 2.56
                            36 2.61  30 2.61  35 2.68  29 2.68
  19  0.000  0.559  0.542-   7 2.56  12 2.56  13 2.56   6 2.56   1 2.56  20 2.56  24 2.56  13 2.56
                            30 2.62  25 2.62  36 2.63  31 2.63
  20  0.167  0.559  0.542-  21 2.56   8 2.56  14 2.56   7 2.56   2 2.56  19 2.56  14 2.56   1 2.56
                            25 2.61  31 2.61  26 2.68  32 2.68
  21  0.333  0.559  0.542-  20 2.56   8 2.56  15 2.56   2 2.56   9 2.56  22 2.56  15 2.56   3 2.56
                            33 2.59  27 2.59  26 2.61  32 2.62
  22  0.500  0.559  0.542-  33 2.55  27 2.55   9 2.56  10 2.56  16 2.56   4 2.56   3 2.56  21 2.56
                            23 2.56  16 2.56  28 2.56  34 2.56
  23  0.667  0.559  0.542-  24 2.56  11 2.56  17 2.56  10 2.56   5 2.56  22 2.56  17 2.56   4 2.56
                            28 2.59  34 2.59  29 2.62  35 2.62
  24  0.833  0.559  0.542-  23 2.56  11 2.56  18 2.56   5 2.56  12 2.56  19 2.56  18 2.56   6 2.56
                            30 2.61  36 2.61  29 2.68  35 2.68
  25  0.085  0.309  0.634-  31 2.56  31 2.56  43 2.56  37 2.56  38 2.59  44 2.59  30 2.59  26 2.60
                            20 2.61  14 2.61  19 2.62  13 2.63
  26  0.254  0.309  0.636-  27 2.53  38 2.53  44 2.53  32 2.56  32 2.56  25 2.60  21 2.61  15 2.62
                            45 2.62  39 2.62  20 2.68  14 2.68
  27  0.419  0.308  0.631-  28 2.49  26 2.53  16 2.55  22 2.55  33 2.56  33 2.56  39 2.58  45 2.58
                            15 2.59  21 2.59  40 2.66
  28  0.581  0.309  0.632-  27 2.49  29 2.53  34 2.56  34 2.56  22 2.56  16 2.56  23 2.59  17 2.59
                            41 2.60  47 2.60  40 2.69
  29  0.746  0.309  0.637-  28 2.53  48 2.54  42 2.54  35 2.56  35 2.56  30 2.60  23 2.62  17 2.62
                            41 2.68  24 2.68  47 2.68  18 2.68
  30  0.915  0.309  0.634-  36 2.56  36 2.56  48 2.57  43 2.57  42 2.57  37 2.57  25 2.59  29 2.60
                            24 2.61  18 2.61  19 2.62  13 2.63
  31  0.085  0.809  0.634-  25 2.56  25 2.56  37 2.56  43 2.56  44 2.59  38 2.59  36 2.59  32 2.60
                            14 2.61  20 2.61  13 2.62  19 2.63
  32  0.254  0.809  0.636-  33 2.53  44 2.53  38 2.53  26 2.56  26 2.56  31 2.60  15 2.61  21 2.62
                            39 2.62  45 2.62  14 2.68  20 2.68
  33  0.419  0.808  0.631-  34 2.49  32 2.53  22 2.55  16 2.55  27 2.56  27 2.56  45 2.58  39 2.58
                            21 2.59  15 2.59  46 2.66
  34  0.581  0.809  0.632-  33 2.49  35 2.53  28 2.56  28 2.56  16 2.56  22 2.56  17 2.59  23 2.59
                            47 2.60  41 2.60  46 2.69
  35  0.746  0.809  0.637-  34 2.53  42 2.54  48 2.54  29 2.56  29 2.56  36 2.60  17 2.62  23 2.62
                            47 2.68  18 2.68  41 2.68  24 2.68
  36  0.915  0.809  0.634-  30 2.56  30 2.56  42 2.57  37 2.57  48 2.57  43 2.57  31 2.59  35 2.60
                            18 2.61  24 2.61  13 2.62  19 2.63
  37  0.001  0.059  0.723-  43 2.56  43 2.56  31 2.56  25 2.56  36 2.57  30 2.57  42 2.61  38 2.61

  38  0.171  0.059  0.723-  26 2.53  32 2.53  44 2.56  44 2.56  25 2.59  31 2.59  37 2.61  39 2.67

  39  0.345  0.059  0.725-  49 1.76  45 2.56  45 2.56  27 2.58  33 2.58  32 2.62  26 2.62  38 2.67
                            46 2.70  40 2.71
  40  0.498  0.310  0.747-  49 1.72  50 1.73  52 1.79  46 2.56  46 2.56  27 2.66  28 2.69  45 2.70
                            39 2.71  47 2.72  41 2.72
  41  0.653  0.060  0.728-  51 1.71  52 1.72  47 2.56  47 2.56  28 2.60  34 2.60  29 2.68  35 2.68
                            46 2.72  40 2.72  42 2.74
  42  0.831  0.058  0.723-  35 2.54  29 2.54  48 2.56  48 2.56  36 2.57  30 2.57  37 2.61  41 2.74

  43  0.001  0.559  0.723-  37 2.56  37 2.56  25 2.56  31 2.56  30 2.57  36 2.57  48 2.61  44 2.61

  44  0.171  0.559  0.723-  32 2.53  26 2.53  38 2.56  38 2.56  31 2.59  25 2.59  43 2.61  45 2.67

  45  0.345  0.559  0.725-  50 1.76  39 2.56  39 2.56  33 2.58  27 2.58  26 2.62  32 2.62  44 2.67
                            40 2.70  46 2.71
  46  0.498  0.810  0.747-  50 1.72  49 1.73  51 1.79  40 2.56  40 2.56  33 2.66  34 2.69  39 2.70
                            45 2.71  41 2.72  47 2.72
  47  0.653  0.560  0.728-  52 1.71  51 1.72  41 2.56  41 2.56  34 2.60  28 2.60  35 2.68  29 2.68
                            40 2.72  46 2.72  48 2.74
  48  0.831  0.558  0.723-  29 2.54  35 2.54  42 2.56  42 2.56  30 2.57  36 2.57  43 2.61  47 2.74

  49  0.435  0.060  0.779-  40 1.72  46 1.73  39 1.76
  50  0.435  0.560  0.779-  46 1.72  40 1.73  45 1.76
  51  0.609  0.810  0.774-  41 1.71  47 1.72  46 1.79
  52  0.609  0.310  0.774-  47 1.71  41 1.72  40 1.79
 
  LATTYP: Found a simple orthorhombic cell.
 ALAT       =     5.1120000000
 B/A-ratio  =     3.0000000000
 C/A-ratio  =     4.0101721440
  
  Lattice vectors:
  
 A1 = (   0.0000000000,  -5.1120000000,   0.0000000000)
 A2 = ( -15.3360000000,   0.0000000000,   0.0000000000)
 A3 = (   0.0000000000,   0.0000000000, -20.5000000000)


Analysis of symmetry for initial positions (statically):
=====================================================================
 Subroutine PRICEL returns following result:
 
  LATTYP: Found a simple orthorhombic cell.
 ALAT       =     2.5559991415
 B/A-ratio  =     6.0000020152
 C/A-ratio  =     8.0203469817
  
  Lattice vectors:
  
 A1 = (  -0.0000136732,  -2.5559991415,   0.0000000000)
 A2 = ( -15.3360000000,   0.0000000000,   0.0000000000)
 A3 = (   0.0000000000,   0.0000000000, -20.5000000000)
 
   2 primitive cells build up your supercell.
 

 Routine SETGRP: Setting up the symmetry group for a 
 simple orthorhombic supercell.


 Subroutine GETGRP returns: Found  1 space group operations
 (whereof  1 operations were pure point group operations)
 out of a pool of  8 trial point group operations.


The static configuration has the point symmetry C_1 .


Analysis of symmetry for dynamics (positions and initial velocities):
=====================================================================
 Subroutine PRICEL returns following result:
 
  LATTYP: Found a simple orthorhombic cell.
 ALAT       =     2.5559991415
 B/A-ratio  =     6.0000020152
 C/A-ratio  =     8.0203469817
  
  Lattice vectors:
  
 A1 = (  -0.0000136732,  -2.5559991415,   0.0000000000)
 A2 = ( -15.3360000000,   0.0000000000,   0.0000000000)
 A3 = (   0.0000000000,   0.0000000000, -20.5000000000)
 
   2 primitive cells build up your supercell.
 

 Routine SETGRP: Setting up the symmetry group for a 
 simple orthorhombic supercell.


 Subroutine GETGRP returns: Found  1 space group operations
 (whereof  1 operations were pure point group operations)
 out of a pool of  8 trial point group operations.


The dynamic configuration has the point symmetry C_1 .


Analysis of constrained symmetry for selective dynamics:
=====================================================================
 Subroutine PRICEL returns following result:
 
  LATTYP: Found a simple orthorhombic cell.
 ALAT       =     2.5559991415
 B/A-ratio  =     6.0000020152
 C/A-ratio  =     8.0203469817
  
  Lattice vectors:
  
 A1 = (  -0.0000136732,  -2.5559991415,   0.0000000000)
 A2 = ( -15.3360000000,   0.0000000000,   0.0000000000)
 A3 = (   0.0000000000,   0.0000000000, -20.5000000000)
 
   2 primitive cells build up your supercell.
 

 Routine SETGRP: Setting up the symmetry group for a 
 simple orthorhombic supercell.


 Subroutine GETGRP returns: Found  1 space group operations
 (whereof  1 operations were pure point group operations)
 out of a pool of  8 trial point group operations.


The constrained configuration has the point symmetry C_1 .


 Subroutine INISYM returns: Found  1 space group operations
 (whereof  1 operations are pure point group operations),
 and found     2 'primitive' translations

 
 
 KPOINTS: KPT-Resolved Value to Generate K-Mesh: 0

Automatic generation of k-mesh.
Space group operators:
 irot       det(A)        alpha          n_x          n_y          n_z        tau_x        tau_y        tau_z
    1     1.000000     0.000000     1.000000     0.000000     0.000000     0.000000     0.000000     0.000000
 
 Subroutine IBZKPT returns following result:
 ===========================================
 
 Found      8 irreducible k-points:
 
 Following reciprocal coordinates:
            Coordinates               Weight
  0.000000  0.000000  0.000000      1.000000
  0.500000  0.000000  0.000000      1.000000
  0.000000  0.166667  0.000000      2.000000
  0.500000  0.166667  0.000000      2.000000
  0.000000  0.333333  0.000000      2.000000
  0.500000  0.333333  0.000000      2.000000
  0.000000  0.500000  0.000000      1.000000
  0.500000  0.500000  0.000000      1.000000
 
 Following cartesian coordinates:
            Coordinates               Weight
  0.000000  0.000000  0.000000      1.000000
  0.032603  0.000000  0.000000      1.000000
  0.000000  0.032603  0.000000      2.000000
  0.032603  0.032603  0.000000      2.000000
  0.000000  0.065206  0.000000      2.000000
  0.032603  0.065206  0.000000      2.000000
  0.000000  0.097809  0.000000      1.000000
  0.032603  0.097809  0.000000      1.000000
 


--------------------------------------------------------------------------------------------------------




 Dimension of arrays:
   k-points           NKPTS =      8   k-points in BZ     NKDIM =      8   number of bands    NBANDS=    320
   number of dos      NEDOS =    301   number of ions     NIONS =     52
   non local maximal  LDIM  =      6   non local SUM 2l+1 LMDIM =     18
   total plane-waves  NPLWV = 224000
   max r-space proj   IRMAX =   2240   max aug-charges    IRDMAX=   4236
   dimension x,y,z NGX =    80 NGY =   28 NGZ =  100
   dimension x,y,z NGXF=   160 NGYF=   56 NGZF=  200
   support grid    NGXF=   160 NGYF=   56 NGZF=  200
   ions per type =              48   4
   NGX,Y,Z   is equivalent  to a cutoff of   8.67,  9.11,  8.11 a.u.
   NGXF,Y,Z  is equivalent  to a cutoff of  17.34, 18.21, 16.22 a.u.

 SYSTEM =  opt-3                                   
 POSCAR =  Cu  H                                   

 Startparameter for this run:
   NWRITE =      2    write-flag & timer
   PREC   = n         normal or accurate (medium, high low for compatibility)
   ISTART =      0    job   : 0-new  1-cont  2-samecut
   ICHARG =      2    charge: 1-file 2-atom 10-const
   ISPIN  =      1    spin polarized calculation?
   LNONCOLLINEAR =      F non collinear calculations
   LSORBIT =      F    spin-orbit coupling
   INIWAV =      1    electr: 0-lowe 1-rand  2-diag
   LASPH  =      F    aspherical Exc in radial PAW
   METAGGA=      F    non-selfconsistent MetaGGA calc.

 Electronic Relaxation 1
   ENCUT  =  400.0 eV  29.40 Ry    5.42 a.u.  25.01  8.34 33.43*2*pi/ulx,y,z
   ENINI  =  400.0     initial cutoff
   ENAUG  =  587.0 eV  augmentation charge cutoff
   NELM   =    400;   NELMIN=  5; NELMDL= -5     # of ELM steps 
   EDIFF  = 0.1E-04   stopping-criterion for ELM
   LREAL  =      T    real-space projection
   NLSPLINE    = F    spline interpolate recip. space projectors
   LCOMPAT=      F    compatible to vasp.4.4
   GGA_COMPAT  = T    GGA compatible to vasp.4.4-vasp.4.6
   LMAXPAW     = -100 max onsite density
   LMAXMIX     =    2 max onsite mixed and CHGCAR
   VOSKOWN=      0    Vosko Wilk Nusair interpolation
   ROPT   =   -0.00050  -0.00050
 Ionic relaxation
   EDIFFG = -.1E-01   stopping-criterion for IOM
   NSW    =    500    number of steps for IOM
   NBLOCK =      1;   KBLOCK =    500    inner block; outer block 
   IBRION =      2    ionic relax: 0-MD 1-quasi-New 2-CG
   NFREE  =      1    steps in history (QN), initial steepest desc. (CG)
   ISIF   =      2    stress and relaxation
   IWAVPR =     11    prediction:  0-non 1-charg 2-wave 3-comb
   ISYM   =      2    0-nonsym 1-usesym 2-fastsym
   LCORR  =      T    Harris-Foulkes like correction to forces

   POTIM  = 0.4000    time-step for ionic-motion
   TEIN   =    0.0    initial temperature
   TEBEG  =    0.0;   TEEND  =   0.0 temperature during run
   SMASS  =  -3.00    Nose mass-parameter (am)
   estimated Nose-frequenzy (Omega)   =  0.10E-29 period in steps =****** mass=  -0.537E-26a.u.
   SCALEE = 1.0000    scale energy and forces
   NPACO  =    256;   APACO  = 16.0  distance and # of slots for P.C.
   PSTRESS=    0.0 pullay stress

  Mass of Ions in am
   POMASS =  63.55  1.00
  Ionic Valenz
   ZVAL   =  11.00  1.00
  Atomic Wigner-Seitz radii
   RWIGS  =  -1.00 -1.00
  virtual crystal weights 
   VCA    =   1.00  1.00
   NELECT =     532.0000    total number of electrons
   NUPDOWN=      -1.0000    fix difference up-down

 DOS related values:
   EMIN   =  10.00;   EMAX   =-10.00  energy-range for DOS
   EFERMI =   0.00
   ISMEAR =     0;   SIGMA  =   0.10  broadening in eV -4-tet -1-fermi 0-gaus

 Electronic relaxation 2 (details)
   IALGO  =     68    algorithm
   LDIAG  =      T    sub-space diagonalisation (order eigenvalues)
   LSUBROT=      F    optimize rotation matrix (better conditioning)
   TURBO    =      0    0=normal 1=particle mesh
   IRESTART =      0    0=no restart 2=restart with 2 vectors
   NREBOOT  =      0    no. of reboots
   NMIN     =      0    reboot dimension
   EREF     =   0.00    reference energy to select bands
   IMIX   =      4    mixing-type and parameters
     AMIX     =   0.40;   BMIX     =  1.00
     AMIX_MAG =   1.60;   BMIX_MAG =  1.00
     AMIN     =   0.10
     WC   =   100.;   INIMIX=   1;  MIXPRE=   1;  MAXMIX= -45

 Intra band minimization:
   WEIMIN = 0.0010     energy-eigenvalue tresh-hold
   EBREAK =  0.78E-08  absolut break condition
   DEPER  =   0.30     relativ break condition  

   TIME   =   0.40     timestep for ELM

  volume/ion in A,a.u.               =      30.91       208.57
  Fermi-wavevector in a.u.,A,eV,Ry     =   1.132469  2.140057 17.449291  1.282487
  Thomas-Fermi vector in A             =   2.269170
 
 Write flags
   LWAVE        =      F    write WAVECAR
   LDOWNSAMPLE  =      F    k-point downsampling of WAVECAR
   LCHARG       =      F    write CHGCAR
   LVTOT        =      F    write LOCPOT, total local potential
   LVHAR        =      F    write LOCPOT, Hartree potential only
   LELF         =      F    write electronic localiz. function (ELF)
   LORBIT       =      0    0 simple, 1 ext, 2 COOP (PROOUT), +10 PAW based schemes


 Dipole corrections
   LMONO  =      F    monopole corrections only (constant potential shift)
   LDIPOL =      F    correct potential (dipole corrections)
   IDIPOL =      0    1-x, 2-y, 3-z, 4-all directions 
   EPSILON=  1.0000000 bulk dielectric constant

 Exchange correlation treatment:
   GGA     =    RP    GGA type
   LEXCH   =     9    internal setting for exchange type
   VOSKOWN=      0    Vosko Wilk Nusair interpolation
   LHFCALC =     F    Hartree Fock is set to
   LHFONE  =     F    Hartree Fock one center treatment
   AEXX    =    0.0000 exact exchange contribution

 Linear response parameters
   LEPSILON=     F    determine dielectric tensor
   LRPA    =     F    only Hartree local field effects (RPA)
   LNABLA  =     F    use nabla operator in PAW spheres
   LVEL    =     F    velocity operator in full k-point grid
   LINTERFAST=   F  fast interpolation
   KINTER  =     0    interpolate to denser k-point grid
   CSHIFT  =0.1000    complex shift for real part using Kramers Kronig
   OMEGAMAX=  -1.0    maximum frequency
   DEG_THRESHOLD= 0.2000000E-02 threshold for treating states as degnerate
   RTIME   =   -0.100 relaxation time in fs
  (WPLASMAI=    0.000 imaginary part of plasma frequency in eV, 0.658/RTIME)
   DFIELD  = 0.0000000 0.0000000 0.0000000 field for delta impulse in time
 
 Orbital magnetization related:
   ORBITALMAG=     F  switch on orbital magnetization
   LCHIMAG   =     F  perturbation theory with respect to B field
   DQ        =  0.001000  dq finite difference perturbation B field
   LLRAUG    =     F  two centre corrections for induced B field



--------------------------------------------------------------------------------------------------------


 conjugate gradient relaxation of ions
   using selective dynamics as specified on POSCAR
 charge density and potential will be updated during run
 non-spin polarized calculation
 RMM-DIIS sequential band-by-band and
  variant of blocked Davidson during initial phase
 perform sub-space diagonalisation
    before iterative eigenvector-optimisation
 modified Broyden-mixing scheme, WC =      100.0
 initial mixing is a Kerker type mixing with AMIX =  0.4000 and BMIX =      1.0000
 Hartree-type preconditioning will be used
 using additional bands           54
 real space projection scheme for non local part
 use partial core corrections
 calculate Harris-corrections to forces 
   (improved forces if not selfconsistent)
 use gradient corrections 
 use of overlap-Matrix (Vanderbilt PP)
 Gauss-broadening in eV      SIGMA  =   0.10


--------------------------------------------------------------------------------------------------------


  energy-cutoff  :      400.00
  volume of cell :     1607.15
      direct lattice vectors                 reciprocal lattice vectors
    15.336000000  0.000000000  0.000000000     0.065206051  0.000000000  0.000000000
     0.000000000  5.112000000  0.000000000     0.000000000  0.195618153  0.000000000
     0.000000000  0.000000000 20.500000000     0.000000000  0.000000000  0.048780488

  length of vectors
    15.336000000  5.112000000 20.500000000     0.065206051  0.195618153  0.048780488


 
 k-points in units of 2pi/SCALE and weight: KPT-Resolved Value to Generate K-Mesh: 0
   0.00000000  0.00000000  0.00000000       0.083
   0.03260303  0.00000000  0.00000000       0.083
   0.00000000  0.03260303  0.00000000       0.167
   0.03260303  0.03260303  0.00000000       0.167
   0.00000000  0.06520605  0.00000000       0.167
   0.03260303  0.06520605  0.00000000       0.167
   0.00000000  0.09780908  0.00000000       0.083
   0.03260303  0.09780908  0.00000000       0.083
 
 k-points in reciprocal lattice and weights: KPT-Resolved Value to Generate K-Mesh: 0
   0.00000000  0.00000000  0.00000000       0.083
   0.50000000  0.00000000  0.00000000       0.083
   0.00000000  0.16666667  0.00000000       0.167
   0.50000000  0.16666667  0.00000000       0.167
   0.00000000  0.33333333  0.00000000       0.167
   0.50000000  0.33333333  0.00000000       0.167
   0.00000000  0.50000000  0.00000000       0.083
   0.50000000  0.50000000  0.00000000       0.083
 
 position of ions in fractional coordinates (direct lattice) 
   0.08333333  0.30868544  0.45401780
   0.25000000  0.30868544  0.45401780
   0.41666667  0.30868544  0.45401780
   0.58333333  0.30868544  0.45401780
   0.75000000  0.30868544  0.45401780
   0.91666667  0.30868544  0.45401780
   0.08333333  0.80868545  0.45401780
   0.25000000  0.80868545  0.45401780
   0.41666667  0.80868545  0.45401780
   0.58333333  0.80868545  0.45401780
   0.75000000  0.80868545  0.45401780
   0.91666667  0.80868545  0.45401780
   0.00000000  0.05868545  0.54218194
   0.16666667  0.05868545  0.54218194
   0.33333333  0.05868545  0.54218194
   0.50000000  0.05868545  0.54218194
   0.66666667  0.05868545  0.54218194
   0.83333333  0.05868545  0.54218194
   0.00000000  0.55868546  0.54218194
   0.16666667  0.55868546  0.54218194
   0.33333333  0.55868546  0.54218194
   0.50000000  0.55868546  0.54218194
   0.66666667  0.55868546  0.54218194
   0.83333333  0.55868546  0.54218194
   0.08458375  0.30915139  0.63446898
   0.25432525  0.30888180  0.63648953
   0.41912791  0.30828976  0.63117521
   0.58132364  0.30871802  0.63160065
   0.74584118  0.30884685  0.63688656
   0.91545917  0.30897598  0.63440447
   0.08458404  0.80915184  0.63446899
   0.25432576  0.80888219  0.63648955
   0.41912872  0.80828968  0.63117524
   0.58132462  0.80871838  0.63160036
   0.74584182  0.80884764  0.63688646
   0.91545948  0.80897656  0.63440448
   0.00072661  0.05872116  0.72253965
   0.17111182  0.05916629  0.72300195
   0.34508059  0.05887324  0.72536710
   0.49772651  0.31021672  0.74693751
   0.65250371  0.05969625  0.72825642
   0.83076264  0.05847303  0.72279967
   0.00072610  0.55872111  0.72253915
   0.17111154  0.55916639  0.72300163
   0.34507991  0.55887333  0.72536700
   0.49772655  0.81021628  0.74693711
   0.65250298  0.55969670  0.72825621
   0.83076177  0.55847290  0.72279913
   0.43513353  0.06038692  0.77855756
   0.43513270  0.56038789  0.77855729
   0.60896177  0.80997183  0.77355010
   0.60896266  0.30997166  0.77355004
 
 position of ions in cartesian coordinates  (Angst):
   1.27799995  1.57799995  9.30736490
   3.83400000  1.57799995  9.30736490
   6.39000005  1.57799995  9.30736490
   8.94599995  1.57799995  9.30736490
  11.50200000  1.57799995  9.30736490
  14.05800005  1.57799995  9.30736490
   1.27799995  4.13400000  9.30736490
   3.83400000  4.13400000  9.30736490
   6.39000005  4.13400000  9.30736490
   8.94599995  4.13400000  9.30736490
  11.50200000  4.13400000  9.30736490
  14.05800005  4.13400000  9.30736490
   0.00000000  0.30000000 11.11472977
   2.55600005  0.30000000 11.11472977
   5.11199995  0.30000000 11.11472977
   7.66800000  0.30000000 11.11472977
  10.22400005  0.30000000 11.11472977
  12.77999995  0.30000000 11.11472977
   0.00000000  2.85600005 11.11472977
   2.55600005  2.85600005 11.11472977
   5.11199995  2.85600005 11.11472977
   7.66800000  2.85600005 11.11472977
  10.22400005  2.85600005 11.11472977
  12.77999995  2.85600005 11.11472977
   1.29717636  1.58038190 13.00661416
   3.90033209  1.57900378 13.04803530
   6.42774558  1.57597727 12.93909171
   8.91517939  1.57816650 12.94781342
  11.43822035  1.57882511 13.05617438
  14.03948181  1.57948520 13.00529166
   1.29718085  4.13638422 13.00661434
   3.90033986  4.13500578 13.04803586
   6.42775800  4.13197684 12.93909242
   8.91519435  4.13416838 12.94780736
  11.43823021  4.13482915 13.05617247
  14.03948660  4.13548817 13.00529191
   0.01114334  0.30018258 14.81206278
   2.62417089  0.30245806 14.82153995
   5.29215600  0.30096002 14.87002560
   7.63313373  1.58582786 15.31221905
  10.00679689  0.30516725 14.92925655
  12.74057592  0.29891414 14.81739330
   0.01113545  2.85618233 14.81205249
   2.62416661  2.85845861 14.82153348
   5.29214546  2.85696048 14.87002352
   7.63313441  4.14182563 15.31221078
  10.00678564  2.86116954 14.92925230
  12.74056254  2.85491346 14.81738216
   6.67320778  0.30869795 15.96042999
   6.67319502  2.86470288 15.96042439
   9.33903771  4.14057597 15.85777706
   9.33905139  1.58457512 15.85777581
 


--------------------------------------------------------------------------------------------------------


 k-point  1 :   0.0000 0.0000 0.0000  plane waves:   29241
 k-point  2 :   0.5000 0.0000 0.0000  plane waves:   29278
 k-point  3 :   0.0000 0.1667 0.0000  plane waves:   29227
 k-point  4 :   0.5000 0.1667 0.0000  plane waves:   29248
 k-point  5 :   0.0000 0.3333 0.0000  plane waves:   29129
 k-point  6 :   0.5000 0.3333 0.0000  plane waves:   29156
 k-point  7 :   0.0000 0.5000 0.0000  plane waves:   29136
 k-point  8 :   0.5000 0.5000 0.0000  plane waves:   29256

 maximum and minimum number of plane-waves per node :      7363     7252

 maximum number of plane-waves:     29278
 maximum index in each direction: 
   IXMAX=   25   IYMAX=    8   IZMAX=   33
   IXMIN=  -25   IYMIN=   -8   IZMIN=  -33


 real space projection operators:
  total allocation   :      14506.02 KBytes
  max/ min on nodes  :       3641.38       3597.16


 parallel 3D FFT for wavefunctions:
    minimum data exchange during FFTs selected (reduces bandwidth)
 parallel 3D FFT for charge:
    minimum data exchange during FFTs selected (reduces bandwidth)


 total amount of memory used by VASP MPI-rank0   127937. kBytes
=======================================================================

   base      :      30000. kBytes
   nonlr-proj:       6374. kBytes
   fftplans  :       5498. kBytes
   grid      :       8572. kBytes
   one-center:        202. kBytes
   wavefun   :      77291. kBytes
 
     INWAV:  cpu time    0.0003: real time    0.0003
 Broyden mixing: mesh for mixing (old mesh)
   NGX = 51   NGY = 17   NGZ = 67
  (NGX  =160   NGY  = 56   NGZ  =200)
  gives a total of  58089 points

 initial charge density was supplied:
 charge density of overlapping atoms calculated
 number of electron     532.0000000 magnetization 
 keeping initial charge density in first step


--------------------------------------------------------------------------------------------------------


 Maximum index for non-local projection operator          548
 Maximum index for augmentation-charges          298 (set IRDMAX)


--------------------------------------------------------------------------------------------------------


 First call to EWALD:  gamma=   0.151
 Maximum number of real-space cells 2x 6x 2
 Maximum number of reciprocal cells 3x 1x 4

    FEWALD:  cpu time    0.0078: real time    0.0078


--------------------------------------- Iteration      1(   1)  ---------------------------------------


    POTLOK:  cpu time    0.0965: real time    0.1015
    SETDIJ:  cpu time    0.0102: real time    0.0102
     EDDAV:  cpu time   17.6737: real time   17.7547
       DOS:  cpu time    0.0028: real time    0.0028
    --------------------------------------------
      LOOP:  cpu time   17.7831: real time   17.8692

 eigenvalue-minimisations  :  5120
 total energy-change (2. order) : 0.4752681E+04  (-0.1925249E+05)
 number of electron     532.0000000 magnetization 
 augmentation part      532.0000000 magnetization 

 Free energy of the ion-electron system (eV)
  ---------------------------------------------------
  alpha Z        PSCENC =      1059.59457262
  Ewald energy   TEWEN  =    178323.52698553
  -Hartree energ DENC   =   -242425.21855383
  -exchange      EXHF   =         0.00000000
  -V(xc)+E(xc)   XCENC  =      2164.23030581
  PAW double counting   =     58999.53565895   -64031.53117936
  entropy T*S    EENTRO =        -0.08003509
  eigenvalues    EBANDS =      3896.19664418
  atomic energy  EATOM  =     66766.42689446
  Solvation  Ediel_sol  =         0.00000000
  ---------------------------------------------------
  free energy    TOTEN  =      4752.68129327 eV

  energy without entropy =     4752.76132836  energy(sigma->0) =     4752.72131082


--------------------------------------------------------------------------------------------------------




--------------------------------------- Iteration      1(   2)  ---------------------------------------


     EDDAV:  cpu time   17.4378: real time   17.5089
       DOS:  cpu time    0.0029: real time    0.0029
    --------------------------------------------
      LOOP:  cpu time   17.4407: real time   17.5118

 eigenvalue-minimisations  :  5120
 total energy-change (2. order) :-0.4295549E+04  (-0.4152115E+04)
 number of electron     532.0000000 magnetization 
 augmentation part      532.0000000 magnetization 

 Free energy of the ion-electron system (eV)
  ---------------------------------------------------
  alpha Z        PSCENC =      1059.59457262
  Ewald energy   TEWEN  =    178323.52698553
  -Hartree energ DENC   =   -242425.21855383
  -exchange      EXHF   =         0.00000000
  -V(xc)+E(xc)   XCENC  =      2164.23030581
  PAW double counting   =     58999.53565895   -64031.53117936
  entropy T*S    EENTRO =        -0.10607185
  eigenvalues    EBANDS =      -399.32654449
  atomic energy  EATOM  =     66766.42689446
  Solvation  Ediel_sol  =         0.00000000
  ---------------------------------------------------
  free energy    TOTEN  =       457.13206784 eV

  energy without entropy =      457.23813969  energy(sigma->0) =      457.18510377


--------------------------------------------------------------------------------------------------------




--------------------------------------- Iteration      1(   3)  ---------------------------------------


     EDDAV:  cpu time   17.3011: real time   17.3457
       DOS:  cpu time    0.0036: real time    0.0036
    --------------------------------------------
      LOOP:  cpu time   17.3047: real time   17.3494

 eigenvalue-minimisations  :  5216
 total energy-change (2. order) :-0.6095953E+03  (-0.5589573E+03)
 number of electron     532.0000000 magnetization 
 augmentation part      532.0000000 magnetization 

 Free energy of the ion-electron system (eV)
  ---------------------------------------------------
  alpha Z        PSCENC =      1059.59457262
  Ewald energy   TEWEN  =    178323.52698553
  -Hartree energ DENC   =   -242425.21855383
  -exchange      EXHF   =         0.00000000
  -V(xc)+E(xc)   XCENC  =      2164.23030581
  PAW double counting   =     58999.53565895   -64031.53117936
  entropy T*S    EENTRO =        -0.09757731
  eigenvalues    EBANDS =     -1008.93031724
  atomic energy  EATOM  =     66766.42689446
  Solvation  Ediel_sol  =         0.00000000
  ---------------------------------------------------
  free energy    TOTEN  =      -152.46321037 eV

  energy without entropy =     -152.36563306  energy(sigma->0) =     -152.41442172


--------------------------------------------------------------------------------------------------------




--------------------------------------- Iteration      1(   4)  ---------------------------------------


     EDDAV:  cpu time   18.9104: real time   18.9663
       DOS:  cpu time    0.0027: real time    0.0027
    --------------------------------------------
      LOOP:  cpu time   18.9131: real time   18.9690

 eigenvalue-minimisations  :  5784
 total energy-change (2. order) :-0.3922846E+02  (-0.3772370E+02)
 number of electron     532.0000000 magnetization 
 augmentation part      532.0000000 magnetization 

 Free energy of the ion-electron system (eV)
  ---------------------------------------------------
  alpha Z        PSCENC =      1059.59457262
  Ewald energy   TEWEN  =    178323.52698553
  -Hartree energ DENC   =   -242425.21855383
  -exchange      EXHF   =         0.00000000
  -V(xc)+E(xc)   XCENC  =      2164.23030581
  PAW double counting   =     58999.53565895   -64031.53117936
  entropy T*S    EENTRO =        -0.08863980
  eigenvalues    EBANDS =     -1048.16771782
  atomic energy  EATOM  =     66766.42689446
  Solvation  Ediel_sol  =         0.00000000
  ---------------------------------------------------
  free energy    TOTEN  =      -191.69167343 eV

  energy without entropy =     -191.60303363  energy(sigma->0) =     -191.64735353


--------------------------------------------------------------------------------------------------------




--------------------------------------- Iteration      1(   5)  ---------------------------------------


     EDDAV:  cpu time   19.3749: real time   19.4429
       DOS:  cpu time    0.0033: real time    0.0033
    CHARGE:  cpu time    0.5605: real time    0.5607
    MIXING:  cpu time    0.0053: real time    0.0053
    --------------------------------------------
      LOOP:  cpu time   19.9440: real time   20.0122

 eigenvalue-minimisations  :  6144
 total energy-change (2. order) :-0.1254235E+01  (-0.1244546E+01)
 number of electron     531.9998598 magnetization 
 augmentation part      315.4794677 magnetization 

 Broyden mixing:
  rms(total) = 0.47447E+01    rms(broyden)= 0.47445E+01
  rms(prec ) = 0.50829E+01
  weight for this iteration     100.00

 Free energy of the ion-electron system (eV)
  ---------------------------------------------------
  alpha Z        PSCENC =      1059.59457262
  Ewald energy   TEWEN  =    178323.52698553
  -Hartree energ DENC   =   -242425.21855383
  -exchange      EXHF   =         0.00000000
  -V(xc)+E(xc)   XCENC  =      2164.23030581
  PAW double counting   =     58999.53565895   -64031.53117936
  entropy T*S    EENTRO =        -0.08838912
  eigenvalues    EBANDS =     -1049.42220368
  atomic energy  EATOM  =     66766.42689446
  Solvation  Ediel_sol  =         0.00000000
  ---------------------------------------------------
  free energy    TOTEN  =      -192.94590861 eV

  energy without entropy =     -192.85751949  energy(sigma->0) =     -192.90171405


--------------------------------------------------------------------------------------------------------




--------------------------------------- Iteration      1(   6)  ---------------------------------------


    POTLOK:  cpu time    0.0815: real time    0.0846
    SETDIJ:  cpu time    0.0098: real time    0.0098
    EDDIAG:  cpu time    2.9210: real time    2.9264
  RMM-DIIS:  cpu time    6.0377: real time    6.0533
    ORTHCH:  cpu time    1.0056: real time    1.0067
       DOS:  cpu time    0.0036: real time    0.0036
    CHARGE:  cpu time    0.6020: real time    0.6025
    MIXING:  cpu time    0.0044: real time    0.0044
    --------------------------------------------
      LOOP:  cpu time   10.6655: real time   10.6913

 eigenvalue-minimisations  :  5129
 total energy-change (2. order) : 0.1712945E+02  (-0.4373249E+02)
 number of electron     531.9998437 magnetization 
 augmentation part      352.1349360 magnetization 

 Broyden mixing:
  rms(total) = 0.26932E+01    rms(broyden)= 0.26928E+01
  rms(prec ) = 0.28940E+01
  weight for this iteration     100.00

 eigenvalues of (default mixing * dielectric matrix)
  average eigenvalue GAMMA=   0.6417
  0.6417

 Free energy of the ion-electron system (eV)
  ---------------------------------------------------
  alpha Z        PSCENC =      1059.59457262
  Ewald energy   TEWEN  =    178323.52698553
  -Hartree energ DENC   =   -241179.47697066
  -exchange      EXHF   =         0.00000000
  -V(xc)+E(xc)   XCENC  =      2106.64459478
  PAW double counting   =     59392.52381251   -64186.35967064
  entropy T*S    EENTRO =        -0.06901994
  eigenvalues    EBANDS =     -2458.62766005
  atomic energy  EATOM  =     66766.42689446
  Solvation  Ediel_sol  =         0.00000000
  ---------------------------------------------------
  free energy    TOTEN  =      -175.81646139 eV

  energy without entropy =     -175.74744146  energy(sigma->0) =     -175.78195143


--------------------------------------------------------------------------------------------------------




--------------------------------------- Iteration      1(   7)  ---------------------------------------


    POTLOK:  cpu time    0.0895: real time    0.0895
    SETDIJ:  cpu time    0.0097: real time    0.0097
    EDDIAG:  cpu time    2.9850: real time    2.9924
  RMM-DIIS:  cpu time    5.9305: real time    5.9632
    ORTHCH:  cpu time    1.0053: real time    1.0057
       DOS:  cpu time    0.0043: real time    0.0043
    CHARGE:  cpu time    0.6578: real time    0.6588
    MIXING:  cpu time    0.0037: real time    0.0037
    --------------------------------------------
      LOOP:  cpu time   10.6857: real time   10.7273

 eigenvalue-minimisations  :  5122
 total energy-change (2. order) : 0.1718429E+02  (-0.7474168E+01)
 number of electron     531.9998501 magnetization 
 augmentation part      337.7810955 magnetization 

 Broyden mixing:
  rms(total) = 0.45216E+00    rms(broyden)= 0.45195E+00
  rms(prec ) = 0.52166E+00
  weight for this iteration     100.00

 eigenvalues of (default mixing * dielectric matrix)
  average eigenvalue GAMMA=   0.8528
  1.1009  0.6046

 Free energy of the ion-electron system (eV)
  ---------------------------------------------------
  alpha Z        PSCENC =      1059.59457262
  Ewald energy   TEWEN  =    178323.52698553
  -Hartree energ DENC   =   -241723.82517459
  -exchange      EXHF   =         0.00000000
  -V(xc)+E(xc)   XCENC  =      2125.87984386
  PAW double counting   =     60502.82354962   -65507.20685215
  entropy T*S    EENTRO =        -0.07137690
  eigenvalues    EBANDS =     -1705.78061361
  atomic energy  EATOM  =     66766.42689446
  Solvation  Ediel_sol  =         0.00000000
  ---------------------------------------------------
  free energy    TOTEN  =      -158.63217116 eV

  energy without entropy =     -158.56079427  energy(sigma->0) =     -158.59648272


--------------------------------------------------------------------------------------------------------




--------------------------------------- Iteration      1(   8)  ---------------------------------------


    POTLOK:  cpu time    0.0744: real time    0.0764
    SETDIJ:  cpu time    0.0097: real time    0.0097
    EDDIAG:  cpu time    2.8631: real time    2.8694
  RMM-DIIS:  cpu time    6.1002: real time    6.1173
    ORTHCH:  cpu time    0.9521: real time    0.9537
       DOS:  cpu time    0.0031: real time    0.0031
    CHARGE:  cpu time    0.5309: real time    0.5317
    MIXING:  cpu time    0.0040: real time    0.0040
    --------------------------------------------
      LOOP:  cpu time   10.5376: real time   10.5653

 eigenvalue-minimisations  :  5212
 total energy-change (2. order) : 0.4193149E-01  (-0.3450460E+00)
 number of electron     531.9998497 magnetization 
 augmentation part      337.3587412 magnetization 

 Broyden mixing:
  rms(total) = 0.49054E+00    rms(broyden)= 0.49051E+00
  rms(prec ) = 0.58932E+00
  weight for this iteration     100.00

 eigenvalues of (default mixing * dielectric matrix)
  average eigenvalue GAMMA=   0.9006
  1.7347  0.6098  0.3573

 Free energy of the ion-electron system (eV)
  ---------------------------------------------------
  alpha Z        PSCENC =      1059.59457262
  Ewald energy   TEWEN  =    178323.52698553
  -Hartree energ DENC   =   -241747.53687736
  -exchange      EXHF   =         0.00000000
  -V(xc)+E(xc)   XCENC  =      2124.58052138
  PAW double counting   =     61196.12916193   -66259.39802511
  entropy T*S    EENTRO =        -0.09387905
  eigenvalues    EBANDS =     -1621.81959406
  atomic energy  EATOM  =     66766.42689446
  Solvation  Ediel_sol  =         0.00000000
  ---------------------------------------------------
  free energy    TOTEN  =      -158.59023968 eV

  energy without entropy =     -158.49636062  energy(sigma->0) =     -158.54330015


--------------------------------------------------------------------------------------------------------




--------------------------------------- Iteration      1(   9)  ---------------------------------------


    POTLOK:  cpu time    0.0694: real time    0.0695
    SETDIJ:  cpu time    0.0094: real time    0.0094
    EDDIAG:  cpu time    2.8503: real time    2.8550
  RMM-DIIS:  cpu time    6.0231: real time    6.0400
    ORTHCH:  cpu time    0.9695: real time    0.9720
       DOS:  cpu time    0.0027: real time    0.0027
    CHARGE:  cpu time    0.5365: real time    0.5375
    MIXING:  cpu time    0.0048: real time    0.0048
    --------------------------------------------
      LOOP:  cpu time   10.4658: real time   10.4909

 eigenvalue-minimisations  :  5132
 total energy-change (2. order) : 0.4206536E+00  (-0.9869008E-01)
 number of electron     531.9998503 magnetization 
 augmentation part      337.2926556 magnetization 

 Broyden mixing:
  rms(total) = 0.21273E+00    rms(broyden)= 0.21269E+00
  rms(prec ) = 0.24386E+00
  weight for this iteration     100.00

 eigenvalues of (default mixing * dielectric matrix)
  average eigenvalue GAMMA=   0.8056
  1.8077  0.5697  0.4224  0.4224

 Free energy of the ion-electron system (eV)
  ---------------------------------------------------
  alpha Z        PSCENC =      1059.59457262
  Ewald energy   TEWEN  =    178323.52698553
  -Hartree energ DENC   =   -241758.19913416
  -exchange      EXHF   =         0.00000000
  -V(xc)+E(xc)   XCENC  =      2122.89171732
  PAW double counting   =     61713.57591308   -66815.25860589
  entropy T*S    EENTRO =        -0.09309842
  eigenvalues    EBANDS =     -1570.63483061
  atomic energy  EATOM  =     66766.42689446
  Solvation  Ediel_sol  =         0.00000000
  ---------------------------------------------------
  free energy    TOTEN  =      -158.16958608 eV

  energy without entropy =     -158.07648766  energy(sigma->0) =     -158.12303687


--------------------------------------------------------------------------------------------------------




--------------------------------------- Iteration      1(  10)  ---------------------------------------


    POTLOK:  cpu time    0.0752: real time    0.0756
    SETDIJ:  cpu time    0.0102: real time    0.0103
    EDDIAG:  cpu time    2.7980: real time    2.8060
  RMM-DIIS:  cpu time    6.1724: real time    6.1900
    ORTHCH:  cpu time    0.9615: real time    0.9622
       DOS:  cpu time    0.0028: real time    0.0028
    CHARGE:  cpu time    0.5349: real time    0.5355
    MIXING:  cpu time    0.0036: real time    0.0036
    --------------------------------------------
      LOOP:  cpu time   10.5586: real time   10.5860

 eigenvalue-minimisations  :  5340
 total energy-change (2. order) : 0.4863055E-01  (-0.1789891E-01)
 number of electron     531.9998500 magnetization 
 augmentation part      337.5687145 magnetization 

 Broyden mixing:
  rms(total) = 0.12801E+00    rms(broyden)= 0.12801E+00
  rms(prec ) = 0.14689E+00
  weight for this iteration     100.00

 eigenvalues of (default mixing * dielectric matrix)
  average eigenvalue GAMMA=   0.9631
  2.1423  1.2724  0.6340  0.4327  0.3342

 Free energy of the ion-electron system (eV)
  ---------------------------------------------------
  alpha Z        PSCENC =      1059.59457262
  Ewald energy   TEWEN  =    178323.52698553
  -Hartree energ DENC   =   -241748.99864749
  -exchange      EXHF   =         0.00000000
  -V(xc)+E(xc)   XCENC  =      2122.23111405
  PAW double counting   =     61811.53261826   -66918.06238245
  entropy T*S    EENTRO =        -0.09417845
  eigenvalues    EBANDS =     -1574.27793206
  atomic energy  EATOM  =     66766.42689446
  Solvation  Ediel_sol  =         0.00000000
  ---------------------------------------------------
  free energy    TOTEN  =      -158.12095553 eV

  energy without entropy =     -158.02677708  energy(sigma->0) =     -158.07386631


--------------------------------------------------------------------------------------------------------




--------------------------------------- Iteration      1(  11)  ---------------------------------------


    POTLOK:  cpu time    0.0698: real time    0.0700
    SETDIJ:  cpu time    0.0104: real time    0.0104
    EDDIAG:  cpu time    2.7890: real time    2.7924
  RMM-DIIS:  cpu time    6.3003: real time    6.3179
    ORTHCH:  cpu time    1.0117: real time    1.0129
       DOS:  cpu time    0.0029: real time    0.0029
    CHARGE:  cpu time    0.6177: real time    0.6184
    MIXING:  cpu time    0.0057: real time    0.0057
    --------------------------------------------
      LOOP:  cpu time   10.8075: real time   10.8307

 eigenvalue-minimisations  :  5120
 total energy-change (2. order) : 0.4272237E-01  (-0.9760706E-02)
 number of electron     531.9998497 magnetization 
 augmentation part      338.0812002 magnetization 

 Broyden mixing:
  rms(total) = 0.43613E-01    rms(broyden)= 0.43605E-01
  rms(prec ) = 0.60020E-01
  weight for this iteration     100.00

 eigenvalues of (default mixing * dielectric matrix)
  average eigenvalue GAMMA=   1.0070
  2.2839  1.5495  0.8148  0.6647  0.4102  0.3192

 Free energy of the ion-electron system (eV)
  ---------------------------------------------------
  alpha Z        PSCENC =      1059.59457262
  Ewald energy   TEWEN  =    178323.52698553
  -Hartree energ DENC   =   -241731.48929143
  -exchange      EXHF   =         0.00000000
  -V(xc)+E(xc)   XCENC  =      2120.95048799
  PAW double counting   =     62020.85311816   -67137.79556771
  entropy T*S    EENTRO =        -0.08895635
  eigenvalues    EBANDS =     -1580.05647643
  atomic energy  EATOM  =     66766.42689446
  Solvation  Ediel_sol  =         0.00000000
  ---------------------------------------------------
  free energy    TOTEN  =      -158.07823316 eV

  energy without entropy =     -157.98927681  energy(sigma->0) =     -158.03375499


--------------------------------------------------------------------------------------------------------




--------------------------------------- Iteration      1(  12)  ---------------------------------------


    POTLOK:  cpu time    0.0826: real time    0.0864
    SETDIJ:  cpu time    0.0105: real time    0.0105
    EDDIAG:  cpu time    2.8984: real time    2.9022
  RMM-DIIS:  cpu time    6.3703: real time    6.3821
    ORTHCH:  cpu time    1.0120: real time    1.0127
       DOS:  cpu time    0.0032: real time    0.0032
    CHARGE:  cpu time    0.5916: real time    0.5929
    MIXING:  cpu time    0.0051: real time    0.0051
    --------------------------------------------
      LOOP:  cpu time   10.9739: real time   10.9953

 eigenvalue-minimisations  :  5156
 total energy-change (2. order) : 0.1214919E-01  (-0.2563898E-02)
 number of electron     531.9998499 magnetization 
 augmentation part      337.9940543 magnetization 

 Broyden mixing:
  rms(total) = 0.36225E-01    rms(broyden)= 0.36220E-01
  rms(prec ) = 0.44562E-01
  weight for this iteration     100.00

 eigenvalues of (default mixing * dielectric matrix)
  average eigenvalue GAMMA=   0.9595
  2.2249  1.4512  1.2997  0.6384  0.4414  0.3531  0.3081

 Free energy of the ion-electron system (eV)
  ---------------------------------------------------
  alpha Z        PSCENC =      1059.59457262
  Ewald energy   TEWEN  =    178323.52698553
  -Hartree energ DENC   =   -241749.75692652
  -exchange      EXHF   =         0.00000000
  -V(xc)+E(xc)   XCENC  =      2120.84548387
  PAW double counting   =     62115.10219949   -67238.56115541
  entropy T*S    EENTRO =        -0.08971212
  eigenvalues    EBANDS =     -1555.15442588
  atomic energy  EATOM  =     66766.42689446
  Solvation  Ediel_sol  =         0.00000000
  ---------------------------------------------------
  free energy    TOTEN  =      -158.06608397 eV

  energy without entropy =     -157.97637185  energy(sigma->0) =     -158.02122791


--------------------------------------------------------------------------------------------------------




--------------------------------------- Iteration      1(  13)  ---------------------------------------


    POTLOK:  cpu time    0.0837: real time    0.0840
    SETDIJ:  cpu time    0.0099: real time    0.0099
    EDDIAG:  cpu time    2.8985: real time    2.9033
  RMM-DIIS:  cpu time    6.0115: real time    6.0287
    ORTHCH:  cpu time    1.0164: real time    1.0177
       DOS:  cpu time    0.0035: real time    0.0035
    CHARGE:  cpu time    0.5639: real time    0.5642
    MIXING:  cpu time    0.0041: real time    0.0041
    --------------------------------------------
      LOOP:  cpu time   10.5917: real time   10.6154

 eigenvalue-minimisations  :  5141
 total energy-change (2. order) : 0.5697999E-02  (-0.1064039E-02)
 number of electron     531.9998498 magnetization 
 augmentation part      337.9356301 magnetization 

 Broyden mixing:
  rms(total) = 0.16461E-01    rms(broyden)= 0.16458E-01
  rms(prec ) = 0.23501E-01
  weight for this iteration     100.00

 eigenvalues of (default mixing * dielectric matrix)
  average eigenvalue GAMMA=   0.9761
  2.4216  1.7218  1.1697  0.6873  0.6873  0.3190  0.4009  0.4009

 Free energy of the ion-electron system (eV)
  ---------------------------------------------------
  alpha Z        PSCENC =      1059.59457262
  Ewald energy   TEWEN  =    178323.52698553
  -Hartree energ DENC   =   -241761.39356513
  -exchange      EXHF   =         0.00000000
  -V(xc)+E(xc)   XCENC  =      2120.89726009
  PAW double counting   =     62137.91970779   -67263.08304493
  entropy T*S    EENTRO =        -0.09135412
  eigenvalues    EBANDS =     -1541.85784227
  atomic energy  EATOM  =     66766.42689446
  Solvation  Ediel_sol  =         0.00000000
  ---------------------------------------------------
  free energy    TOTEN  =      -158.06038597 eV

  energy without entropy =     -157.96903185  energy(sigma->0) =     -158.01470891


--------------------------------------------------------------------------------------------------------




--------------------------------------- Iteration      1(  14)  ---------------------------------------


    POTLOK:  cpu time    0.0778: real time    0.0797
    SETDIJ:  cpu time    0.0126: real time    0.0126
    EDDIAG:  cpu time    2.9151: real time    2.9190
  RMM-DIIS:  cpu time    6.0697: real time    6.0875
    ORTHCH:  cpu time    1.0399: real time    1.0407
       DOS:  cpu time    0.0028: real time    0.0028
    CHARGE:  cpu time    0.5882: real time    0.5884
    MIXING:  cpu time    0.0051: real time    0.0051
    --------------------------------------------
      LOOP:  cpu time   10.7112: real time   10.7359

 eigenvalue-minimisations  :  5124
 total energy-change (2. order) : 0.5093568E-02  (-0.4490263E-03)
 number of electron     531.9998498 magnetization 
 augmentation part      337.9855404 magnetization 

 Broyden mixing:
  rms(total) = 0.12018E-01    rms(broyden)= 0.12017E-01
  rms(prec ) = 0.17389E-01
  weight for this iteration     100.00

 eigenvalues of (default mixing * dielectric matrix)
  average eigenvalue GAMMA=   0.9586
  2.4688  1.8968  1.1474  0.7035  0.7035  0.6007  0.3164  0.4139  0.3763

 Free energy of the ion-electron system (eV)
  ---------------------------------------------------
  alpha Z        PSCENC =      1059.59457262
  Ewald energy   TEWEN  =    178323.52698553
  -Hartree energ DENC   =   -241774.71313775
  -exchange      EXHF   =         0.00000000
  -V(xc)+E(xc)   XCENC  =      2120.84954928
  PAW double counting   =     62146.48662715   -67271.46072273
  entropy T*S    EENTRO =        -0.09114324
  eigenvalues    EBANDS =     -1528.67491771
  atomic energy  EATOM  =     66766.42689446
  Solvation  Ediel_sol  =         0.00000000
  ---------------------------------------------------
  free energy    TOTEN  =      -158.05529240 eV

  energy without entropy =     -157.96414916  energy(sigma->0) =     -158.00972078


--------------------------------------------------------------------------------------------------------




--------------------------------------- Iteration      1(  15)  ---------------------------------------


    POTLOK:  cpu time    0.0760: real time    0.0761
    SETDIJ:  cpu time    0.0100: real time    0.0100
    EDDIAG:  cpu time    2.9184: real time    2.9224
  RMM-DIIS:  cpu time    6.3981: real time    6.4186
    ORTHCH:  cpu time    1.0162: real time    1.0166
       DOS:  cpu time    0.0028: real time    0.0028
    CHARGE:  cpu time    0.5890: real time    0.5896
    MIXING:  cpu time    0.0060: real time    0.0060
    --------------------------------------------
      LOOP:  cpu time   11.0166: real time   11.0422

 eigenvalue-minimisations  :  5152
 total energy-change (2. order) : 0.1192298E-02  (-0.1229423E-03)
 number of electron     531.9998498 magnetization 
 augmentation part      337.9841753 magnetization 

 Broyden mixing:
  rms(total) = 0.91455E-02    rms(broyden)= 0.91450E-02
  rms(prec ) = 0.13683E-01
  weight for this iteration     100.00

 eigenvalues of (default mixing * dielectric matrix)
  average eigenvalue GAMMA=   1.0983
  2.6575  2.6575  1.3827  1.0687  1.0687  0.6515  0.3174  0.4243  0.3848  0.3699

 Free energy of the ion-electron system (eV)
  ---------------------------------------------------
  alpha Z        PSCENC =      1059.59457262
  Ewald energy   TEWEN  =    178323.52698553
  -Hartree energ DENC   =   -241781.29497478
  -exchange      EXHF   =         0.00000000
  -V(xc)+E(xc)   XCENC  =      2120.88693919
  PAW double counting   =     62140.95096162   -67265.51100070
  entropy T*S    EENTRO =        -0.09183455
  eigenvalues    EBANDS =     -1522.54264348
  atomic energy  EATOM  =     66766.42689446
  Solvation  Ediel_sol  =         0.00000000
  ---------------------------------------------------
  free energy    TOTEN  =      -158.05410011 eV

  energy without entropy =     -157.96226555  energy(sigma->0) =     -158.00818283


--------------------------------------------------------------------------------------------------------




--------------------------------------- Iteration      1(  16)  ---------------------------------------


    POTLOK:  cpu time    0.0847: real time    0.0852
    SETDIJ:  cpu time    0.0131: real time    0.0134
    EDDIAG:  cpu time    3.0375: real time    3.0407
  RMM-DIIS:  cpu time    5.9978: real time    6.0121
    ORTHCH:  cpu time    0.9585: real time    0.9599
       DOS:  cpu time    0.0029: real time    0.0029
    CHARGE:  cpu time    0.5345: real time    0.5349
    MIXING:  cpu time    0.0060: real time    0.0060
    --------------------------------------------
      LOOP:  cpu time   10.6350: real time   10.6551

 eigenvalue-minimisations  :  5128
 total energy-change (2. order) : 0.2516183E-03  (-0.1281954E-03)
 number of electron     531.9998498 magnetization 
 augmentation part      337.9553926 magnetization 

 Broyden mixing:
  rms(total) = 0.51472E-02    rms(broyden)= 0.51464E-02
  rms(prec ) = 0.75906E-02
  weight for this iteration     100.00

 eigenvalues of (default mixing * dielectric matrix)
  average eigenvalue GAMMA=   1.0528
  2.7420  2.7420  1.4577  1.0716  1.0716  0.6484  0.4539  0.3914  0.3914  0.3180
  0.2930

 Free energy of the ion-electron system (eV)
  ---------------------------------------------------
  alpha Z        PSCENC =      1059.59457262
  Ewald energy   TEWEN  =    178323.52698553
  -Hartree energ DENC   =   -241795.94157402
  -exchange      EXHF   =         0.00000000
  -V(xc)+E(xc)   XCENC  =      2121.01494396
  PAW double counting   =     62121.62687463   -67245.18032783
  entropy T*S    EENTRO =        -0.09184355
  eigenvalues    EBANDS =     -1509.03037428
  atomic energy  EATOM  =     66766.42689446
  Solvation  Ediel_sol  =         0.00000000
  ---------------------------------------------------
  free energy    TOTEN  =      -158.05384849 eV

  energy without entropy =     -157.96200493  energy(sigma->0) =     -158.00792671


--------------------------------------------------------------------------------------------------------




--------------------------------------- Iteration      1(  17)  ---------------------------------------


    POTLOK:  cpu time    0.0748: real time    0.0749
    SETDIJ:  cpu time    0.0098: real time    0.0099
    EDDIAG:  cpu time    2.8269: real time    2.8326
  RMM-DIIS:  cpu time    6.0314: real time    6.0487
    ORTHCH:  cpu time    1.0037: real time    1.0047
       DOS:  cpu time    0.0031: real time    0.0031
    CHARGE:  cpu time    0.5716: real time    0.5726
    MIXING:  cpu time    0.0083: real time    0.0083
    --------------------------------------------
      LOOP:  cpu time   10.5296: real time   10.5546

 eigenvalue-minimisations  :  5130
 total energy-change (2. order) :-0.6717112E-03  (-0.3227921E-04)
 number of electron     531.9998498 magnetization 
 augmentation part      337.9504098 magnetization 

 Broyden mixing:
  rms(total) = 0.35814E-02    rms(broyden)= 0.35811E-02
  rms(prec ) = 0.51064E-02
  weight for this iteration     100.00

 eigenvalues of (default mixing * dielectric matrix)
  average eigenvalue GAMMA=   1.1525
  3.0514  3.0514  1.9387  1.2185  1.2185  0.8287  0.6615  0.4270  0.4215  0.3753
  0.3187  0.3187

 Free energy of the ion-electron system (eV)
  ---------------------------------------------------
  alpha Z        PSCENC =      1059.59457262
  Ewald energy   TEWEN  =    178323.52698553
  -Hartree energ DENC   =   -241800.13882665
  -exchange      EXHF   =         0.00000000
  -V(xc)+E(xc)   XCENC  =      2121.03485695
  PAW double counting   =     62117.83726327   -67241.28534320
  entropy T*S    EENTRO =        -0.09203555
  eigenvalues    EBANDS =     -1504.95888762
  atomic energy  EATOM  =     66766.42689446
  Solvation  Ediel_sol  =         0.00000000
  ---------------------------------------------------
  free energy    TOTEN  =      -158.05452020 eV

  energy without entropy =     -157.96248465  energy(sigma->0) =     -158.00850242


--------------------------------------------------------------------------------------------------------




--------------------------------------- Iteration      1(  18)  ---------------------------------------


    POTLOK:  cpu time    0.0813: real time    0.0870
    SETDIJ:  cpu time    0.0141: real time    0.0141
    EDDIAG:  cpu time    2.8916: real time    2.8955
  RMM-DIIS:  cpu time    5.7592: real time    5.7721
    ORTHCH:  cpu time    0.9991: real time    1.0000
       DOS:  cpu time    0.0035: real time    0.0035
    CHARGE:  cpu time    0.5885: real time    0.5892
    MIXING:  cpu time    0.0070: real time    0.0070
    --------------------------------------------
      LOOP:  cpu time   10.3442: real time   10.3684

 eigenvalue-minimisations  :  4882
 total energy-change (2. order) :-0.1119752E-02  (-0.1989094E-04)
 number of electron     531.9998498 magnetization 
 augmentation part      337.9535495 magnetization 

 Broyden mixing:
  rms(total) = 0.20822E-02    rms(broyden)= 0.20820E-02
  rms(prec ) = 0.31888E-02
  weight for this iteration     100.00

 eigenvalues of (default mixing * dielectric matrix)
  average eigenvalue GAMMA=   1.2063
  3.6704  3.2358  2.2068  1.2748  1.2748  0.8403  0.6838  0.6164  0.4184  0.4184
  0.3862  0.3171  0.3390

 Free energy of the ion-electron system (eV)
  ---------------------------------------------------
  alpha Z        PSCENC =      1059.59457262
  Ewald energy   TEWEN  =    178323.52698553
  -Hartree energ DENC   =   -241804.28158988
  -exchange      EXHF   =         0.00000000
  -V(xc)+E(xc)   XCENC  =      2121.02990039
  PAW double counting   =     62116.28728395   -67239.83452028
  entropy T*S    EENTRO =        -0.09210192
  eigenvalues    EBANDS =     -1500.71306481
  atomic energy  EATOM  =     66766.42689446
  Solvation  Ediel_sol  =         0.00000000
  ---------------------------------------------------
  free energy    TOTEN  =      -158.05563995 eV

  energy without entropy =     -157.96353803  energy(sigma->0) =     -158.00958899


--------------------------------------------------------------------------------------------------------




--------------------------------------- Iteration      1(  19)  ---------------------------------------


    POTLOK:  cpu time    0.0865: real time    0.0866
    SETDIJ:  cpu time    0.0105: real time    0.0105
    EDDIAG:  cpu time    2.9396: real time    2.9425
  RMM-DIIS:  cpu time    5.7254: real time    5.7404
    ORTHCH:  cpu time    1.0111: real time    1.0126
       DOS:  cpu time    0.0029: real time    0.0029
    CHARGE:  cpu time    0.6035: real time    0.6040
    MIXING:  cpu time    0.0064: real time    0.0064
    --------------------------------------------
      LOOP:  cpu time   10.3860: real time   10.4060

 eigenvalue-minimisations  :  4884
 total energy-change (2. order) :-0.6751880E-03  (-0.1482249E-04)
 number of electron     531.9998498 magnetization 
 augmentation part      337.9564394 magnetization 

 Broyden mixing:
  rms(total) = 0.18802E-02    rms(broyden)= 0.18801E-02
  rms(prec ) = 0.26075E-02
  weight for this iteration     100.00

 eigenvalues of (default mixing * dielectric matrix)
  average eigenvalue GAMMA=   1.2310
  4.5577  2.9248  2.1951  1.3943  1.2857  0.9729  0.9729  0.6548  0.3172  0.4360
  0.3392  0.4003  0.4003  0.3830

 Free energy of the ion-electron system (eV)
  ---------------------------------------------------
  alpha Z        PSCENC =      1059.59457262
  Ewald energy   TEWEN  =    178323.52698553
  -Hartree energ DENC   =   -241806.88066697
  -exchange      EXHF   =         0.00000000
  -V(xc)+E(xc)   XCENC  =      2121.02388842
  PAW double counting   =     62115.75496226   -67239.39876661
  entropy T*S    EENTRO =        -0.09210344
  eigenvalues    EBANDS =     -1498.01208139
  atomic energy  EATOM  =     66766.42689446
  Solvation  Ediel_sol  =         0.00000000
  ---------------------------------------------------
  free energy    TOTEN  =      -158.05631514 eV

  energy without entropy =     -157.96421169  energy(sigma->0) =     -158.01026342


--------------------------------------------------------------------------------------------------------




--------------------------------------- Iteration      1(  20)  ---------------------------------------


    POTLOK:  cpu time    0.0921: real time    0.0938
    SETDIJ:  cpu time    0.0102: real time    0.0102
    EDDIAG:  cpu time    2.9061: real time    2.9097
  RMM-DIIS:  cpu time    4.2581: real time    4.2643
    ORTHCH:  cpu time    0.9856: real time    0.9863
       DOS:  cpu time    0.0032: real time    0.0032
    CHARGE:  cpu time    0.5885: real time    0.5888
    MIXING:  cpu time    0.0081: real time    0.0081
    --------------------------------------------
      LOOP:  cpu time    8.8518: real time    8.8644

 eigenvalue-minimisations  :  3372
 total energy-change (2. order) :-0.2206491E-03  (-0.4816667E-05)
 number of electron     531.9998498 magnetization 
 augmentation part      337.9578249 magnetization 

 Broyden mixing:
  rms(total) = 0.82218E-03    rms(broyden)= 0.82206E-03
  rms(prec ) = 0.15507E-02
  weight for this iteration     100.00

 eigenvalues of (default mixing * dielectric matrix)
  average eigenvalue GAMMA=   1.2133
  4.7590  2.8798  2.2135  1.5206  1.2490  0.9802  0.9802  0.6771  0.6650  0.3173
  0.3314  0.4260  0.4260  0.3784  0.3956

 Free energy of the ion-electron system (eV)
  ---------------------------------------------------
  alpha Z        PSCENC =      1059.59457262
  Ewald energy   TEWEN  =    178323.52698553
  -Hartree energ DENC   =   -241808.16823412
  -exchange      EXHF   =         0.00000000
  -V(xc)+E(xc)   XCENC  =      2121.02159097
  PAW double counting   =     62115.87976262   -67239.55869987
  entropy T*S    EENTRO =        -0.09206614
  eigenvalues    EBANDS =     -1496.68734185
  atomic energy  EATOM  =     66766.42689446
  Solvation  Ediel_sol  =         0.00000000
  ---------------------------------------------------
  free energy    TOTEN  =      -158.05653579 eV

  energy without entropy =     -157.96446965  energy(sigma->0) =     -158.01050272


--------------------------------------------------------------------------------------------------------




--------------------------------------- Iteration      1(  21)  ---------------------------------------


    POTLOK:  cpu time    0.0907: real time    0.0908
    SETDIJ:  cpu time    0.0113: real time    0.0113
    EDDIAG:  cpu time    3.0685: real time    3.0715
  RMM-DIIS:  cpu time    3.8887: real time    3.8988
    ORTHCH:  cpu time    0.9542: real time    0.9553
       DOS:  cpu time    0.0028: real time    0.0028
    CHARGE:  cpu time    0.5464: real time    0.5466
    MIXING:  cpu time    0.0063: real time    0.0063
    --------------------------------------------
      LOOP:  cpu time    8.5691: real time    8.5834

 eigenvalue-minimisations  :  3055
 total energy-change (2. order) :-0.2341892E-03  (-0.2452641E-05)
 number of electron     531.9998498 magnetization 
 augmentation part      337.9575380 magnetization 

 Broyden mixing:
  rms(total) = 0.10763E-02    rms(broyden)= 0.10762E-02
  rms(prec ) = 0.16285E-02
  weight for this iteration     100.00

 eigenvalues of (default mixing * dielectric matrix)
  average eigenvalue GAMMA=   1.2750
  5.0945  3.0437  2.3260  2.3260  1.3031  1.0697  1.0697  0.9010  0.6562  0.4357
  0.4271  0.4035  0.3813  0.3373  0.3170  0.3080

 Free energy of the ion-electron system (eV)
  ---------------------------------------------------
  alpha Z        PSCENC =      1059.59457262
  Ewald energy   TEWEN  =    178323.52698553
  -Hartree energ DENC   =   -241809.11018593
  -exchange      EXHF   =         0.00000000
  -V(xc)+E(xc)   XCENC  =      2121.02077761
  PAW double counting   =     62116.61014016   -67240.31830597
  entropy T*S    EENTRO =        -0.09208024
  eigenvalues    EBANDS =     -1495.71556821
  atomic energy  EATOM  =     66766.42689446
  Solvation  Ediel_sol  =         0.00000000
  ---------------------------------------------------
  free energy    TOTEN  =      -158.05676998 eV

  energy without entropy =     -157.96468973  energy(sigma->0) =     -158.01072985


--------------------------------------------------------------------------------------------------------




--------------------------------------- Iteration      1(  22)  ---------------------------------------


    POTLOK:  cpu time    0.0762: real time    0.0763
    SETDIJ:  cpu time    0.0095: real time    0.0095
    EDDIAG:  cpu time    2.8032: real time    2.8098
  RMM-DIIS:  cpu time    3.9564: real time    3.9655
    ORTHCH:  cpu time    0.9782: real time    0.9788
       DOS:  cpu time    0.0033: real time    0.0033
    CHARGE:  cpu time    0.5349: real time    0.5351
    MIXING:  cpu time    0.0073: real time    0.0073
    --------------------------------------------
      LOOP:  cpu time    8.3692: real time    8.3857

 eigenvalue-minimisations  :  3185
 total energy-change (2. order) :-0.2257317E-03  (-0.3237894E-05)
 number of electron     531.9998498 magnetization 
 augmentation part      337.9575945 magnetization 

 Broyden mixing:
  rms(total) = 0.51888E-03    rms(broyden)= 0.51878E-03
  rms(prec ) = 0.88555E-03
  weight for this iteration     100.00

 eigenvalues of (default mixing * dielectric matrix)
  average eigenvalue GAMMA=   1.3309
  5.3947  3.8005  2.4677  2.1745  1.5447  1.1253  1.1253  0.8715  0.8715  0.6548
  0.4417  0.4147  0.4042  0.3803  0.3322  0.3172  0.3043

 Free energy of the ion-electron system (eV)
  ---------------------------------------------------
  alpha Z        PSCENC =      1059.59457262
  Ewald energy   TEWEN  =    178323.52698553
  -Hartree energ DENC   =   -241810.26860352
  -exchange      EXHF   =         0.00000000
  -V(xc)+E(xc)   XCENC  =      2121.01984177
  PAW double counting   =     62117.43599769   -67241.17314035
  entropy T*S    EENTRO =        -0.09204899
  eigenvalues    EBANDS =     -1494.52749491
  atomic energy  EATOM  =     66766.42689446
  Solvation  Ediel_sol  =         0.00000000
  ---------------------------------------------------
  free energy    TOTEN  =      -158.05699571 eV

  energy without entropy =     -157.96494672  energy(sigma->0) =     -158.01097121


--------------------------------------------------------------------------------------------------------




--------------------------------------- Iteration      1(  23)  ---------------------------------------


    POTLOK:  cpu time    0.0866: real time    0.0880
    SETDIJ:  cpu time    0.0111: real time    0.0113
    EDDIAG:  cpu time    2.8321: real time    2.8367
  RMM-DIIS:  cpu time    3.8676: real time    3.8781
    ORTHCH:  cpu time    1.0302: real time    1.0328
       DOS:  cpu time    0.0034: real time    0.0034
    CHARGE:  cpu time    0.5899: real time    0.5903
    MIXING:  cpu time    0.0076: real time    0.0076
    --------------------------------------------
      LOOP:  cpu time    8.4285: real time    8.4484

 eigenvalue-minimisations  :  3013
[...]
 -0.000  -0.000  -0.010   0.000  -0.000  -0.000  -0.000   0.004
  0.000  -0.013  -0.000   0.000   0.000  -0.000   0.011  -0.000
  0.000  -0.000  -0.015   0.000   0.000   0.000   0.000   0.011
 -0.000   0.000  -0.000  -0.013   0.000  -0.000   0.000   0.000
  0.000  -0.015   0.000  -0.000   0.000  -0.000   0.013  -0.000
 -0.000  -0.000  -0.017   0.000   0.000   0.000   0.000   0.013
 -0.000  -0.000  -0.000  -0.015   0.000   0.000   0.000   0.000
 total augmentation occupancy for first ion, spin component:           1
  1.925  -0.000   0.000  -0.000  -0.000  -0.035  -0.000   0.000  -0.000  -0.000   0.000  -0.000  -0.001  -0.000   0.000   0.000
 -0.000   1.923  -0.000   0.000   0.000  -0.000  -0.026   0.000   0.000   0.000  -0.000   0.000   0.032  -0.000  -0.000  -0.017
  0.000  -0.000   1.938  -0.000  -0.001   0.000   0.000  -0.036   0.000   0.000   0.002   0.012   0.000   0.043  -0.001  -0.000
 -0.000   0.000  -0.000   1.923  -0.000  -0.000   0.000   0.000  -0.026   0.000  -0.001  -0.000  -0.000   0.000   0.032   0.000
 -0.000   0.000  -0.001  -0.000   1.907  -0.000   0.000   0.000   0.000  -0.007  -0.000  -0.000   0.000   0.001  -0.000  -0.000
 -0.035  -0.000   0.000  -0.000  -0.000   0.012   0.000   0.000   0.000  -0.000   0.000  -0.000   0.000   0.000   0.000  -0.000
 -0.000  -0.026   0.000   0.000   0.000   0.000   0.010   0.000   0.000   0.000  -0.000   0.000   0.022   0.000   0.000  -0.001
  0.000   0.000  -0.036   0.000   0.000   0.000   0.000   0.011  -0.000  -0.000  -0.031   0.001   0.000   0.018   0.000  -0.000
 -0.000   0.000   0.000  -0.026   0.000   0.000   0.000  -0.000   0.010  -0.000   0.000   0.000   0.000  -0.000   0.022  -0.000
 -0.000   0.000   0.000   0.000  -0.007  -0.000   0.000  -0.000  -0.000   0.012   0.000   0.000   0.000  -0.000   0.000  -0.000
  0.000  -0.000   0.002  -0.001  -0.000   0.000  -0.000  -0.031   0.000   0.000   1.615  -0.120  -0.000   0.163  -0.001   0.000
 -0.000   0.000   0.012  -0.000  -0.000  -0.000   0.000   0.001   0.000   0.000  -0.120   0.014   0.000  -0.024  -0.000  -0.000
 -0.001   0.032   0.000  -0.000   0.000   0.000   0.022   0.000   0.000   0.000  -0.000   0.000   0.180   0.000   0.000  -0.011
 -0.000  -0.000   0.043   0.000   0.001   0.000   0.000   0.018  -0.000  -0.000   0.163  -0.024   0.000   0.110   0.001   0.000
  0.000  -0.000  -0.001   0.032  -0.000   0.000   0.000   0.000   0.022   0.000  -0.001  -0.000   0.000   0.001   0.181   0.000
  0.000  -0.017  -0.000   0.000  -0.000  -0.000  -0.001  -0.000  -0.000  -0.000   0.000  -0.000  -0.011   0.000   0.000   0.001
  0.000  -0.000  -0.020   0.000   0.000  -0.000   0.000  -0.000  -0.000  -0.000  -0.023   0.002   0.000  -0.008   0.000  -0.000
 -0.000   0.000  -0.000  -0.017   0.000  -0.000  -0.000   0.000  -0.001  -0.000   0.000  -0.000  -0.000   0.000  -0.011  -0.000


------------------------ aborting loop because EDIFF is reached ----------------------------------------


    CHARGE:  cpu time    0.6040: real time    0.6042
    FORLOC:  cpu time    0.0392: real time    0.0392
    FORNL :  cpu time    2.6881: real time    2.6942
    STRESS:  cpu time    8.3080: real time    8.3201
    FORCOR:  cpu time    0.1037: real time    0.1038
    FORHAR:  cpu time    0.0448: real time    0.0448
    MIXING:  cpu time    0.0047: real time    0.0047
    OFIELD:  cpu time    0.0000: real time    0.0000

  FORCE on cell =-STRESS in cart. coord.  units (eV):
  Direction    XX          YY          ZZ          XY          YZ          ZX
  --------------------------------------------------------------------------------------
  Alpha Z  1059.59457  1059.59457  1059.59457
  Ewald  212188.06300212788.66914************     0.03601    -0.64962    12.81499
  Hartree229892.56258230348.69272************    -0.05253    -0.29171    15.05019
  E(xc)   -3096.23235 -3095.76117 -3105.79680     0.00150    -0.00046    -0.03761
  Local  ************************459325.00451     0.04727     0.90316   -28.34432
  n-local -1072.46179 -1068.38718 -1080.30424     0.00576    -0.02098    -0.46313
  augment  4537.18934  4533.33544  4554.42149    -0.01353     0.01731     0.17178
  Kinetic  4312.60476  4311.82261  4345.73061    -0.01582     0.00628     0.69053
  Fock        0.00000     0.00000     0.00000     0.00000     0.00000     0.00000
  -------------------------------------------------------------------------------------
  Total      -8.73204    -2.10936    -1.04898     0.00867    -0.03601    -0.11756
  in kB      -8.70501    -2.10283    -1.04573     0.00864    -0.03590    -0.11720
  external pressure =       -3.95 kB  Pullay stress =        0.00 kB


 VOLUME and BASIS-vectors are now :
 -----------------------------------------------------------------------------
  energy-cutoff  :      400.00
  volume of cell :     1607.15
      direct lattice vectors                 reciprocal lattice vectors
    15.336000000  0.000000000  0.000000000     0.065206051  0.000000000  0.000000000
     0.000000000  5.112000000  0.000000000     0.000000000  0.195618153  0.000000000
     0.000000000  0.000000000 20.500000000     0.000000000  0.000000000  0.048780488

  length of vectors
    15.336000000  5.112000000 20.500000000     0.065206051  0.195618153  0.048780488


 FORCES acting on ions
    electron-ion (+dipol)            ewald-force                    non-local-force                 convergence-correction
 -----------------------------------------------------------------------------------------------
   0.749E+01 0.135E-02 0.315E+04   -.757E+01 -.193E-02 -.315E+04   0.755E-01 -.292E-02 -.393E+01   -.690E-03 0.131E-05 0.115E-02
   0.191E+02 0.133E-03 0.316E+04   -.192E+02 -.673E-03 -.316E+04   0.100E+00 -.618E-02 -.379E+01   -.152E-02 -.204E-05 0.946E-03
   0.101E+02 -.328E-02 0.318E+04   -.100E+02 0.168E-02 -.318E+04   -.227E-01 -.171E-02 -.372E+01   -.109E-02 -.306E-06 0.699E-03
   -.143E+02 -.112E-02 0.318E+04   0.143E+02 0.884E-04 -.318E+04   0.301E-01 -.233E-02 -.366E+01   0.602E-03 0.402E-06 0.751E-03
   -.181E+02 0.525E-04 0.316E+04   0.183E+02 -.603E-03 -.316E+04   -.156E+00 -.612E-02 -.377E+01   0.176E-02 0.386E-06 0.111E-02
   -.415E+01 0.375E-03 0.315E+04   0.417E+01 -.131E-02 -.315E+04   -.232E-01 -.254E-02 -.399E+01   0.940E-03 0.843E-06 0.121E-02
   0.749E+01 0.149E-02 0.315E+04   -.757E+01 -.205E-02 -.315E+04   0.755E-01 -.292E-02 -.393E+01   -.688E-03 0.995E-06 0.115E-02
   0.191E+02 0.241E-03 0.316E+04   -.192E+02 -.779E-03 -.316E+04   0.100E+00 -.618E-02 -.379E+01   -.152E-02 -.260E-06 0.944E-03
   0.101E+02 -.320E-02 0.318E+04   -.100E+02 0.161E-02 -.318E+04   -.227E-01 -.171E-02 -.372E+01   -.109E-02 -.298E-05 0.698E-03
   -.143E+02 -.984E-03 0.318E+04   0.143E+02 -.365E-04 -.318E+04   0.301E-01 -.233E-02 -.366E+01   0.602E-03 -.108E-07 0.752E-03
   -.181E+02 0.223E-03 0.316E+04   0.183E+02 -.765E-03 -.316E+04   -.156E+00 -.612E-02 -.377E+01   0.176E-02 -.542E-06 0.111E-02
   -.415E+01 0.531E-03 0.315E+04   0.417E+01 -.146E-02 -.315E+04   -.232E-01 -.254E-02 -.399E+01   0.940E-03 0.117E-05 0.121E-02
   0.262E+01 -.115E+00 0.106E+04   -.256E+01 0.114E+00 -.106E+04   -.367E-01 -.715E-02 -.492E+00   0.140E-03 -.175E-04 0.318E-02
   0.151E+02 -.100E+00 0.106E+04   -.152E+02 0.993E-01 -.106E+04   0.183E+00 -.316E-02 -.390E+00   -.158E-02 -.126E-05 0.308E-02
   0.459E+02 0.338E-01 0.110E+04   -.461E+02 -.342E-01 -.110E+04   0.150E+00 -.688E-02 -.400E+00   -.143E-02 0.210E-04 0.279E-02
   -.706E+01 0.658E-01 0.112E+04   0.710E+01 -.664E-01 -.112E+04   -.229E-01 -.120E-01 -.923E+00   -.384E-03 0.139E-04 0.310E-02
   -.493E+02 -.288E-01 0.109E+04   0.495E+02 0.283E-01 -.109E+04   -.132E+00 -.526E-02 -.299E+00   0.155E-02 -.465E-05 0.293E-02
   -.801E+01 -.684E-01 0.105E+04   0.800E+01 0.675E-01 -.105E+04   -.104E+00 -.412E-02 -.461E+00   0.161E-02 -.118E-04 0.295E-02
   0.262E+01 -.115E+00 0.106E+04   -.256E+01 0.114E+00 -.106E+04   -.367E-01 -.715E-02 -.492E+00   0.141E-03 -.138E-04 0.318E-02
   0.151E+02 -.101E+00 0.106E+04   -.152E+02 0.997E-01 -.106E+04   0.183E+00 -.316E-02 -.390E+00   -.158E-02 -.204E-06 0.308E-02
   0.459E+02 0.329E-01 0.110E+04   -.461E+02 -.332E-01 -.110E+04   0.150E+00 -.688E-02 -.400E+00   -.143E-02 0.221E-04 0.279E-02
   -.706E+01 0.667E-01 0.112E+04   0.710E+01 -.673E-01 -.112E+04   -.229E-01 -.120E-01 -.923E+00   -.385E-03 0.128E-04 0.310E-02
   -.493E+02 -.263E-01 0.109E+04   0.495E+02 0.259E-01 -.109E+04   -.132E+00 -.526E-02 -.299E+00   0.155E-02 -.578E-05 0.293E-02
   -.801E+01 -.674E-01 0.105E+04   0.800E+01 0.665E-01 -.105E+04   -.104E+00 -.412E-02 -.461E+00   0.161E-02 -.100E-04 0.295E-02
   0.153E+02 0.193E+00 -.106E+04   -.154E+02 -.193E+00 0.106E+04   0.173E-01 -.430E-02 0.509E+00   -.295E-02 -.993E-03 0.432E-02
   0.653E+02 -.248E-01 -.107E+04   -.648E+02 0.278E-01 0.107E+04   -.503E+00 -.892E-02 -.187E+00   -.343E-02 0.149E-02 0.373E-02
   -.848E+01 -.420E-01 -.972E+03   0.851E+01 0.492E-01 0.971E+03   -.280E-01 -.133E-01 0.981E+00   -.412E-02 0.201E-02 0.105E-01
   -.847E+01 -.947E-01 -.984E+03   0.848E+01 0.962E-01 0.983E+03   -.162E-01 -.678E-02 0.939E+00   0.502E-03 -.282E-03 0.676E-02
   -.528E+02 0.476E-02 -.109E+04   0.523E+02 -.872E-02 0.109E+04   0.501E+00 -.118E-02 -.356E+00   0.300E-02 -.618E-03 0.628E-02
   -.101E+02 0.229E+00 -.106E+04   0.100E+02 -.230E+00 0.106E+04   0.100E+00 -.380E-02 0.475E+00   0.308E-03 -.157E-02 0.543E-02
   0.153E+02 0.193E+00 -.106E+04   -.154E+02 -.194E+00 0.106E+04   0.173E-01 -.430E-02 0.509E+00   -.295E-02 -.993E-03 0.432E-02
   0.653E+02 -.249E-01 -.107E+04   -.648E+02 0.279E-01 0.107E+04   -.503E+00 -.892E-02 -.187E+00   -.343E-02 0.150E-02 0.372E-02
   -.848E+01 -.415E-01 -.972E+03   0.851E+01 0.487E-01 0.971E+03   -.280E-01 -.133E-01 0.981E+00   -.412E-02 0.202E-02 0.105E-01
   -.846E+01 -.947E-01 -.984E+03   0.848E+01 0.962E-01 0.983E+03   -.162E-01 -.678E-02 0.939E+00   0.500E-03 -.281E-03 0.675E-02
   -.528E+02 0.580E-02 -.109E+04   0.523E+02 -.974E-02 0.109E+04   0.501E+00 -.118E-02 -.356E+00   0.301E-02 -.618E-03 0.628E-02
   -.101E+02 0.230E+00 -.106E+04   0.100E+02 -.231E+00 0.106E+04   0.100E+00 -.380E-02 0.475E+00   0.308E-03 -.156E-02 0.543E-02
   0.228E+01 -.116E+00 -.312E+04   -.220E+01 0.116E+00 0.311E+04   -.810E-01 -.472E-02 0.399E+01   0.700E-03 -.169E-02 0.463E-02
   0.646E+02 0.658E-02 -.311E+04   -.644E+02 -.113E-01 0.311E+04   -.244E+00 -.443E-03 0.424E+01   -.137E-02 -.607E-03 0.148E-02
   0.176E+03 0.589E-01 -.301E+04   -.176E+03 -.501E-01 0.301E+04   0.421E+00 -.151E-01 0.323E+01   -.913E-02 0.313E-02 0.119E-01
   -.899E+01 -.415E-01 -.317E+04   0.817E+01 0.307E-01 0.317E+04   0.826E+00 0.429E-02 0.148E-01   -.224E-02 0.295E-02 0.580E-02
   -.192E+03 0.625E-01 -.300E+04   0.192E+03 -.767E-01 0.300E+04   0.109E+00 0.806E-02 0.132E+01   0.650E-02 0.156E-02 0.887E-02
   -.468E+02 -.901E-01 -.310E+04   0.470E+02 0.931E-01 0.310E+04   -.202E+00 -.790E-02 0.450E+01   0.329E-02 -.180E-02 0.734E-02
   0.228E+01 -.116E+00 -.312E+04   -.220E+01 0.116E+00 0.311E+04   -.810E-01 -.472E-02 0.399E+01   0.704E-03 -.168E-02 0.463E-02
   0.646E+02 0.666E-02 -.311E+04   -.644E+02 -.113E-01 0.311E+04   -.244E+00 -.443E-03 0.424E+01   -.136E-02 -.608E-03 0.148E-02
   0.176E+03 0.593E-01 -.301E+04   -.176E+03 -.505E-01 0.301E+04   0.421E+00 -.151E-01 0.323E+01   -.913E-02 0.314E-02 0.119E-01
   -.899E+01 -.426E-01 -.317E+04   0.817E+01 0.318E-01 0.317E+04   0.826E+00 0.429E-02 0.148E-01   -.224E-02 0.296E-02 0.579E-02
   -.192E+03 0.634E-01 -.300E+04   0.192E+03 -.776E-01 0.300E+04   0.109E+00 0.806E-02 0.132E+01   0.650E-02 0.155E-02 0.887E-02
   -.468E+02 -.900E-01 -.310E+04   0.470E+02 0.930E-01 0.310E+04   -.202E+00 -.790E-02 0.450E+01   0.329E-02 -.180E-02 0.734E-02
   0.207E+02 -.449E-01 -.356E+03   -.211E+02 0.434E-01 0.357E+03   0.362E+00 -.181E-02 -.118E+01   0.484E-04 -.505E-04 0.640E-04
   0.207E+02 -.451E-01 -.356E+03   -.211E+02 0.436E-01 0.357E+03   0.362E+00 -.181E-02 -.118E+01   0.484E-04 -.507E-04 0.639E-04
   -.164E+02 0.803E-01 -.355E+03   0.164E+02 -.883E-01 0.356E+03   0.281E-01 0.421E-02 -.123E+01   0.669E-04 -.332E-04 0.106E-03
   -.164E+02 0.806E-01 -.355E+03   0.164E+02 -.886E-01 0.356E+03   0.281E-01 0.421E-02 -.123E+01   0.671E-04 -.336E-04 0.105E-03
 -----------------------------------------------------------------------------------------------
   -.262E+01 -.625E-01 0.169E+02   -.174E-12 0.802E-13 0.625E-11   0.267E+01 -.224E+00 -.172E+02   -.178E-01 0.705E-02 0.202E+00
 
 
 POSITION                                       TOTAL-FORCE (eV/Angst)
 -----------------------------------------------------------------------------------
      1.27800      1.57800      9.30736        -0.005188      0.001890     -0.070690
      3.83400      1.57800      9.30736        -0.003606     -0.001338     -0.076425
      6.39000      1.57800      9.30736         0.001014      0.002067     -0.088535
      8.94600      1.57800      9.30736        -0.004092      0.002029     -0.083158
     11.50200      1.57800      9.30736         0.014224     -0.001290     -0.070287
     14.05800      1.57800      9.30736        -0.005878      0.001915     -0.077698
      1.27800      4.13400      9.30736        -0.005188      0.001890     -0.070690
      3.83400      4.13400      9.30736        -0.003606     -0.001338     -0.076425
      6.39000      4.13400      9.30736         0.001014      0.002067     -0.088535
      8.94600      4.13400      9.30736        -0.004092      0.002029     -0.083158
     11.50200      4.13400      9.30736         0.014224     -0.001290     -0.070287
     14.05800      4.13400      9.30736        -0.005878      0.001915     -0.077698
      0.00000      0.30000     11.11473         0.017633     -0.003051      0.130985
      2.55600      0.30000     11.11473         0.090552      0.001159      0.189393
      5.11200      0.30000     11.11473        -0.081582     -0.001814      0.005488
      7.66800      0.30000     11.11473         0.022455     -0.007220     -0.144843
     10.22400      0.30000     11.11473         0.080548     -0.000292      0.054455
     12.78000      0.30000     11.11473        -0.115333      0.000342      0.188655
      0.00000      2.85600     11.11473         0.017633     -0.003051      0.130985
      2.55600      2.85600     11.11473         0.090552      0.001159      0.189393
      5.11200      2.85600     11.11473        -0.081582     -0.001814      0.005488
      7.66800      2.85600     11.11473         0.022455     -0.007220     -0.144843
     10.22400      2.85600     11.11473         0.080548     -0.000292      0.054455
     12.78000      2.85600     11.11473        -0.115333      0.000342      0.188655
      1.29711      1.58035     13.00666        -0.001230     -0.000570      0.001314
      3.90027      1.57905     13.04806        -0.001048      0.000880      0.000917
      6.42765      1.57604     12.93933        -0.001825      0.001256      0.004704
      8.91517      1.57816     12.94793        -0.000178     -0.000143      0.002694
     11.43826      1.57881     13.05628         0.000654     -0.000375      0.002691
     14.03945      1.57944     13.00537        -0.000519     -0.000914      0.002000
      1.29712      4.13635     13.00666        -0.001230     -0.000570      0.001314
      3.90028      4.13505     13.04806        -0.001048      0.000880      0.000917
      6.42766      4.13204     12.93933        -0.001825      0.001256      0.004704
      8.91519      4.13416     12.94792        -0.000178     -0.000143      0.002694
     11.43827      4.13481     13.05628         0.000654     -0.000375      0.002691
     14.03946      4.13544     13.00537        -0.000519     -0.000914      0.002000
      0.01116      0.30012     14.81222         0.000219     -0.001187      0.003381
      2.62419      0.30244     14.82158        -0.000007     -0.000360      0.001218
      5.29186      0.30107     14.87039        -0.005735      0.002163      0.007104
      7.63308      1.58592     15.31235        -0.001258      0.001856      0.002923
     10.00698      0.30521     14.92948         0.003055      0.000786      0.004533
     12.74064      0.29885     14.81763         0.001328     -0.001303      0.004804
      0.01115      2.85612     14.81221         0.000219     -0.001187      0.003381
      2.62419      2.85844     14.82157        -0.000007     -0.000360      0.001218
      5.29185      2.85707     14.87039        -0.005735      0.002163      0.007104
      7.63308      4.14192     15.31234        -0.001258      0.001856      0.002923
     10.00697      2.86121     14.92947         0.003055      0.000786      0.004533
     12.74063      2.85485     14.81762         0.001328     -0.001303      0.004804
      6.67308      0.30877     15.96051        -0.003228      0.002004      0.002503
      6.67306      2.86478     15.96051        -0.003228      0.002004      0.002503
      9.33900      4.14063     15.85783        -0.000977      0.001510      0.001875
      9.33902      1.58463     15.85783        -0.000977      0.001510      0.001875
 -----------------------------------------------------------------------------------
    total drift:                                0.032479     -0.279705     -0.021666


--------------------------------------------------------------------------------------------------------



  FREE ENERGIE OF THE ION-ELECTRON SYSTEM (eV)
  ---------------------------------------------------
  free  energy   TOTEN  =      -158.05756670 eV

  energy  without entropy=     -157.96548673  energy(sigma->0) =     -158.01152671
 
 d Force = 0.2769250E-04[ 0.244E-04, 0.309E-04]  d Energy = 0.3042465E-04-0.273E-05
 d Force = 0.8566767E+01[ 0.857E+01, 0.857E+01]  d Ewald  = 0.8566767E+01-0.990E-09


--------------------------------------------------------------------------------------------------------


    POTLOK:  cpu time    0.0936: real time    0.0937


--------------------------------------------------------------------------------------------------------


 stress matrix after NEB project (eV)
     -8.73204      0.00867     -0.11756
      0.00867     -2.10936     -0.03601
     -0.11756     -0.03601     -1.04898
  FORCES: max atom, RMS     0.009383    0.003126
  FORCE total and by dimension    0.022545    0.007104
  Stress total and by dimension    9.045917    8.732038
 Steepest descent step on ions:
 trial-energy change:   -0.000030  1 .order   -0.000028   -0.000031   -0.000024
  (g-gl).g = 0.309E-04      g.g   = 0.309E-04  gl.gl    = 0.000E+00
 g(Force)  = 0.309E-04   g(Stress)= 0.000E+00 ortho     = 0.000E+00
 gamma     =   0.00000
 trial     =   1.00000
 opt step  =   4.00000  (harmonic =   4.76817) maximal distance =0.00145192
 next E    =  -158.057610   (d E  =  -0.00007)


--------------------------------------------------------------------------------------------------------


  
 reached required accuracy - stopping structural energy minimisation
     LOOP+:  cpu time   64.2500: real time   64.4248
    4ORBIT:  cpu time    0.0000: real time    0.0000

 total amount of memory used by VASP MPI-rank0   127937. kBytes
=======================================================================

   base      :      30000. kBytes
   nonlr-proj:       6374. kBytes
   fftplans  :       5498. kBytes
   grid      :       8572. kBytes
   one-center:        202. kBytes
   wavefun   :      77291. kBytes
 
  
  
 General timing and accounting informations for this job:
 ========================================================
  
                  Total CPU time used (sec):      400.377
                            User time (sec):      393.308
                          System time (sec):        7.070
                         Elapsed time (sec):      404.292
  
                   Maximum memory used (kb):      172052.
                   Average memory used (kb):           0.
  
                          Minor page faults:       297796
                          Major page faults:           80
                 Voluntary context switches:         2241
