<?xml version="1.0" encoding="ISO-8859-1"?>
<modeling>
 <generator>
  <i name="program" type="string">vasp </i>
  <i name="version" type="string">5.4.4.18Apr17-6-g9f103f2a35  </i>
  <i name="subversion" type="string">(build Feb 10 2023 18:07:56) complex            parallel </i>
  <i name="platform" type="string">LinuxIFC </i>
  <i name="date" type="string">2023 04 08 </i>
  <i name="time" type="string">07:36:19 </i>
 </generator>
 <incar>
  <i type="string" name="SYSTEM"> opt-3</i>
  <i type="int" name="ISTART">     0</i>
  <i type="string" name="PREC">n</i>
  <i type="string" name="ALGO"> F</i>
  <i type="int" name="ICHARG">     2</i>
  <i type="int" name="NELM">   400</i>
  <i type="int" name="NELMIN">     5</i>
  <i type="int" name="IBRION">     2</i>
  <i name="EDIFF">      0.00001000</i>
  <i name="EDIFFG">     -0.01000000</i>
  <i type="int" name="NSW">   500</i>
  <i type="int" name="ISIF">     2</i>
  <i name="ENCUT">    400.00000000</i>
  <i name="POTIM">      0.40000000</i>
  <i type="string" name="LREAL"> Auto</i>
  <i type="int" name="ISMEAR">     0</i>
  <i name="SIGMA">      0.10000000</i>
  <i type="logical" name="LWAVE"> F  </i>
  <i type="logical" name="LCHARG"> F  </i>
  <v type="int" name="KPOINT_BSE">    -1     0     0     0</v>
  <i type="int" name="NELM">   400</i>
  <i type="string" name="GGA"> RP</i>
 </incar>
 <structure name="primitive_cell" >
  <crystal>
   <varray name="basis" >
    <v>      -0.00001367      -2.55599914       0.00000000 </v>
    <v>     -15.33600000       0.00000000       0.00000000 </v>
    <v>       0.00000000       0.00000000     -20.50000000 </v>
   </varray>
   <i name="volume">    803.57545809 </i>
   <varray name="rec_basis" >
    <v>       0.00000000      -0.39123644       0.00000000 </v>
    <v>      -0.06520605       0.00000035       0.00000000 </v>
    <v>       0.00000000       0.00000000      -0.04878049 </v>
   </varray>
  </crystal>
  <varray name="positions" >
   <v>       0.38262892      -0.08333278      -0.45401780 </v>
   <v>       0.38262892       0.08333388      -0.45401780 </v>
   <v>      -0.11737093       0.00000010       0.45781806 </v>
   <v>      -0.11737093      -0.16666657       0.45781806 </v>
   <v>       0.38262892      -0.24999945      -0.45401780 </v>
   <v>       0.38169702      -0.08458320       0.36553102 </v>
   <v>      -0.11737093      -0.33333323       0.45781806 </v>
   <v>      -0.11737093       0.16666677       0.45781806 </v>
   <v>       0.38204784       0.08454138       0.36559553 </v>
   <v>       0.38223619      -0.25432470       0.36351047 </v>
   <v>       0.38262892       0.25000055      -0.45401780 </v>
   <v>       0.38262892      -0.41666612      -0.45401780 </v>
   <v>      -0.11744236      -0.00072651       0.27746035 </v>
   <v>      -0.11833262      -0.17111172       0.27699805 </v>
   <v>       0.38342027      -0.41912736       0.36882479 </v>
   <v>       0.38230609       0.25415937       0.36311344 </v>
   <v>      -0.11737093       0.33333343       0.45781806 </v>
   <v>      -0.11737093      -0.49999990       0.45781806 </v>
   <v>      -0.11694550       0.16923744       0.27720087 </v>
   <v>      -0.11774653      -0.34508049       0.27463290 </v>
   <v>       0.38262892       0.41666722      -0.45401780 </v>
   <v>       0.38256376       0.41867691       0.36839935 </v>
   <v>      -0.12077389      -0.43513342       0.22144244 </v>
   <v>       0.37956636      -0.49772596       0.25306249 </v>
   <v>      -0.11939255       0.34749640       0.27174358 </v>
   <v>       0.38005648       0.39103789       0.22644996 </v>
  </varray>
 </structure>
 <varray name="primitive_index" >
  <v type="int" >        1 </v>
  <v type="int" >        6 </v>
  <v type="int" >       13 </v>
  <v type="int" >       14 </v>
  <v type="int" >        2 </v>
  <v type="int" >       25 </v>
  <v type="int" >       15 </v>
  <v type="int" >       18 </v>
  <v type="int" >       30 </v>
  <v type="int" >       26 </v>
  <v type="int" >        5 </v>
  <v type="int" >        3 </v>
  <v type="int" >       37 </v>
  <v type="int" >       38 </v>
  <v type="int" >       27 </v>
  <v type="int" >       29 </v>
  <v type="int" >       17 </v>
  <v type="int" >       16 </v>
  <v type="int" >       48 </v>
  <v type="int" >       39 </v>
  <v type="int" >        4 </v>
  <v type="int" >       28 </v>
  <v type="int" >       49 </v>
  <v type="int" >       40 </v>
  <v type="int" >       41 </v>
  <v type="int" >       52 </v>
 </varray>
 <kpoints>
  <generation param="Gamma">
   <v type="int" name="divisions">       2        6        1 </v>
   <v name="usershift">      0.00000000       0.00000000       0.00000000 </v>
   <v name="genvec1">      0.50000000       0.00000000       0.00000000 </v>
   <v name="genvec2">      0.00000000       0.16666667       0.00000000 </v>
   <v name="genvec3">      0.00000000       0.00000000       1.00000000 </v>
   <v name="shift">      0.00000000       0.00000000       0.00000000 </v>
  </generation>
  <varray name="kpointlist" >
   <v>       0.00000000       0.00000000       0.00000000 </v>
   <v>       0.50000000       0.00000000       0.00000000 </v>
   <v>       0.00000000       0.16666667       0.00000000 </v>
   <v>       0.50000000       0.16666667       0.00000000 </v>
   <v>       0.00000000       0.33333333       0.00000000 </v>
   <v>       0.50000000       0.33333333       0.00000000 </v>
   <v>       0.00000000       0.50000000       0.00000000 </v>
   <v>       0.50000000       0.50000000       0.00000000 </v>
  </varray>
  <varray name="weights" >
   <v>       0.08333333 </v>
   <v>       0.08333333 </v>
   <v>       0.16666667 </v>
   <v>       0.16666667 </v>
   <v>       0.16666667 </v>
   <v>       0.16666667 </v>
   <v>       0.08333333 </v>
   <v>       0.08333333 </v>
  </varray>
 </kpoints>
 <parameters>
  <separator name="general" >
   <i type="string" name="SYSTEM">opt-3</i>
   <i type="logical" name="LCOMPAT"> F  </i>
  </separator>
  <separator name="electronic" >
   <i type="string" name="PREC">n</i>
   <i name="ENMAX">    400.00000000</i>
   <i name="ENAUG">    586.98000000</i>
   <i name="EDIFF">      0.00001000</i>
   <i type="int" name="IALGO">    68</i>
   <i type="int" name="IWAVPR">    11</i>
   <i type="int" name="NBANDS">   320</i>
   <i name="NELECT">    532.00000000</i>
   <i type="int" name="TURBO">     0</i>
   <i type="int" name="IRESTART">     0</i>
   <i type="int" name="NREBOOT">     0</i>
   <i type="int" name="NMIN">     0</i>
   <i name="EREF">      0.00000000</i>
   <separator name="electronic smearing" >
    <i type="int" name="ISMEAR">     0</i>
    <i name="SIGMA">      0.10000000</i>
    <i name="KSPACING">      0.50000000</i>
    <i type="logical" name="KGAMMA"> T  </i>
   </separator>
   <separator name="electronic projectors" >
    <i type="logical" name="LREAL"> T  </i>
    <v name="ROPT">     -0.00050000     -0.00050000</v>
    <i type="int" name="LMAXPAW">  -100</i>
    <i type="int" name="LMAXMIX">     2</i>
    <i type="logical" name="NLSPLINE"> F  </i>
   </separator>
   <separator name="electronic startup" >
    <i type="int" name="ISTART">     0</i>
    <i type="int" name="ICHARG">     2</i>
    <i type="int" name="INIWAV">     1</i>
   </separator>
   <separator name="electronic spin" >
    <i type="int" name="ISPIN">     1</i>
    <i type="logical" name="LNONCOLLINEAR"> F  </i>
    <v name="MAGMOM">      1.00000000      1.00000000      1.00000000      1.00000000      1.00000000      1.00000000      1.00000000      1.00000000      1.00000000      1.00000000      1.00000000      1.00000000      1.00000000      1.00000000      1.00000000      1.00000000      1.00000000      1.00000000      1.00000000      1.00000000
      1.00000000      1.00000000      1.00000000      1.00000000      1.00000000      1.00000000      1.00000000      1.00000000      1.00000000      1.00000000      1.00000000      1.00000000      1.00000000      1.00000000      1.00000000      1.00000000      1.00000000      1.00000000      1.00000000      1.00000000
      1.00000000      1.00000000      1.00000000      1.00000000      1.00000000      1.00000000      1.00000000      1.00000000      1.00000000      1.00000000      1.00000000      1.00000000</v>
    <i name="NUPDOWN">     -1.00000000</i>
    <i type="logical" name="LSORBIT"> F  </i>
    <v name="SAXIS">      0.00000000      0.00000000      1.00000000</v>
    <i type="logical" name="LSPIRAL"> F  </i>
    <v name="QSPIRAL">      0.00000000      0.00000000      0.00000000</v>
    <i type="logical" name="LZEROZ"> F  </i>
   </separator>
   <separator name="electronic exchange-correlation" >
    <i type="logical" name="LASPH"> F  </i>
    <i type="logical" name="LMETAGGA"> F  </i>
   </separator>
   <separator name="electronic convergence" >
    <i type="int" name="NELM">   400</i>
    <i type="int" name="NELMDL">    -5</i>
    <i type="int" name="NELMIN">     5</i>
    <i name="ENINI">    400.00000000</i>
    <separator name="electronic convergence detail" >
     <i type="logical" name="LDIAG"> T  </i>
     <i type="logical" name="LSUBROT"> F  </i>
     <i name="WEIMIN">      0.00100000</i>
     <i name="EBREAK">      0.00000001</i>
     <i name="DEPER">      0.30000000</i>
     <i type="int" name="NRMM">     4</i>
     <i name="TIME">      0.40000000</i>
    </separator>
   </separator>
   <separator name="electronic mixer" >
    <i name="AMIX">      0.40000000</i>
    <i name="BMIX">      1.00000000</i>
    <i name="AMIN">      0.10000000</i>
    <i name="AMIX_MAG">      1.60000000</i>
    <i name="BMIX_MAG">      1.00000000</i>
    <separator name="electronic mixer details" >
     <i type="int" name="IMIX">     4</i>
     <i type="logical" name="MIXFIRST"> F  </i>
     <i type="int" name="MAXMIX">   -45</i>
     <i name="WC">    100.00000000</i>
     <i type="int" name="INIMIX">     1</i>
     <i type="int" name="MIXPRE">     1</i>
     <i type="int" name="MREMOVE">     5</i>
    </separator>
   </separator>
   <separator name="electronic dipolcorrection" >
    <i type="logical" name="LDIPOL"> F  </i>
    <i type="logical" name="LMONO"> F  </i>
    <i type="int" name="IDIPOL">     0</i>
    <i name="EPSILON">      1.00000000</i>
    <v name="DIPOL">   -100.00000000   -100.00000000   -100.00000000</v>
    <i name="EFIELD">      0.00000000</i>
   </separator>
  </separator>
  <separator name="grids" >
   <i type="int" name="NGX">    80</i>
   <i type="int" name="NGY">    28</i>
   <i type="int" name="NGZ">   100</i>
   <i type="int" name="NGXF">   160</i>
   <i type="int" name="NGYF">    56</i>
   <i type="int" name="NGZF">   200</i>
   <i type="logical" name="ADDGRID"> F  </i>
  </separator>
  <separator name="ionic" >
   <i type="int" name="NSW">   500</i>
   <i type="int" name="IBRION">     2</i>
   <i type="int" name="MDALGO">     0</i>
   <i type="int" name="ISIF">     2</i>
   <i name="PSTRESS">      0.00000000</i>
   <i name="EDIFFG">     -0.01000000</i>
   <i type="int" name="NFREE">     1</i>
   <i name="POTIM">      0.40000000</i>
   <i name="SMASS">     -3.00000000</i>
   <i name="SCALEE">      1.00000000</i>
  </separator>
  <separator name="ionic md" >
   <i name="TEBEG">      0.00010000</i>
   <i name="TEEND">      0.00010000</i>
   <i type="int" name="NBLOCK">     1</i>
   <i type="int" name="KBLOCK">   500</i>
   <i type="int" name="NPACO">   256</i>
   <i name="APACO">     16.00000000</i>
  </separator>
  <separator name="symmetry" >
   <i type="int" name="ISYM">     2</i>
   <i name="SYMPREC">      0.00001000</i>
  </separator>
  <separator name="dos" >
   <i type="int" name="LORBIT">     0</i>
   <v name="RWIGS">     -1.00000000     -1.00000000</v>
   <i type="int" name="NEDOS">   301</i>
   <i name="EMIN">     10.00000000</i>
   <i name="EMAX">    -10.00000000</i>
   <i name="EFERMI">      0.00000000</i>
  </separator>
  <separator name="writing" >
   <i type="int" name="NWRITE">     2</i>
   <i type="logical" name="LWAVE"> F  </i>
   <i type="logical" name="LDOWNSAMPLE"> F  </i>
   <i type="logical" name="LCHARG"> F  </i>
   <i type="logical" name="LPARD"> F  </i>
   <i type="logical" name="LVTOT"> F  </i>
   <i type="logical" name="LVHAR"> F  </i>
   <i type="logical" name="LELF"> F  </i>
   <i type="logical" name="LOPTICS"> F  </i>
   <v name="STM">      0.00000000      0.00000000      0.00000000      0.00000000      0.00000000      0.00000000      0.00000000</v>
  </separator>
  <separator name="performance" >
   <i type="int" name="NPAR">     4</i>
   <i type="int" name="NSIM">     4</i>
   <i type="int" name="NBLK">    -1</i>
   <i type="logical" name="LPLANE"> T  </i>
   <i type="logical" name="LSCALAPACK"> T  </i>
   <i type="logical" name="LSCAAWARE"> F  </i>
   <i type="logical" name="LSCALU"> F  </i>
   <i type="logical" name="LASYNC"> F  </i>
   <i type="logical" name="LORBITALREAL"> F  </i>
  </separator>
  <separator name="miscellaneous" >
   <i type="int" name="IDIOT">     3</i>
   <i type="int" name="ISPECIAL">     0</i>
   <i type="logical" name="LMUSIC"> F  </i>
   <v name="POMASS">     63.54600000      1.00000000</v>
   <v name="DARWINR">      0.00000000      0.00000000</v>
   <v name="DARWINV">      1.00000000      1.00000000</v>
   <i type="logical" name="LCORR"> T  </i>
  </separator>
  <i type="logical" name="GGA_COMPAT"> T  </i>
  <i type="logical" name="LBERRY"> F  </i>
  <i type="int" name="ICORELEVEL">     0</i>
  <i type="logical" name="LDAU"> F  </i>
  <i type="int" name="I_CONSTRAINED_M">     0</i>
  <separator name="electronic exchange-correlation" >
   <i type="string" name="GGA">RP</i>
   <i type="int" name="VOSKOWN">     0</i>
   <i type="logical" name="LHFCALC"> F  </i>
   <i type="string" name="PRECFOCK"></i>
   <i type="logical" name="LSYMGRAD"> F  </i>
   <i type="logical" name="LHFONE"> F  </i>
   <i type="logical" name="LRHFCALC"> F  </i>
   <i type="logical" name="LTHOMAS"> F  </i>
   <i type="logical" name="LMODELHF"> F  </i>
   <i name="ENCUT4O">     -1.00000000</i>
   <i type="int" name="EXXOEP">     0</i>
   <i type="int" name="FOURORBIT">     0</i>
   <i name="AEXX">      0.00000000</i>
   <i name="HFALPHA">      0.00000000</i>
   <i name="MCALPHA">      0.00000000</i>
   <i name="ALDAX">      1.00000000</i>
   <i name="AGGAX">      1.00000000</i>
   <i name="ALDAC">      1.00000000</i>
   <i name="AGGAC">      1.00000000</i>
   <i type="int" name="NKREDX">     1</i>
   <i type="int" name="NKREDY">     1</i>
   <i type="int" name="NKREDZ">     1</i>
   <i type="logical" name="SHIFTRED"> F  </i>
   <i type="logical" name="ODDONLY"> F  </i>
   <i type="logical" name="EVENONLY"> F  </i>
   <i type="int" name="LMAXFOCK">     0</i>
   <i type="int" name="NMAXFOCKAE">     0</i>
   <i type="logical" name="LFOCKAEDFT"> F  </i>
   <i name="HFSCREEN">      0.00000000</i>
   <i name="HFSCREENC">      0.00000000</i>
   <i type="int" name="NBANDSGWLOW">     0</i>
  </separator>
  <separator name="vdW DFT" >
   <i type="logical" name="LUSE_VDW"> F  </i>
   <i name="Zab_VDW">     -0.84910000</i>
   <i name="PARAM1">      0.12340000</i>
   <i name="PARAM2">      1.00000000</i>
   <i name="PARAM3">      0.00000000</i>
  </separator>
  <separator name="model GW" >
   <i type="int" name="MODEL_GW">     0</i>
   <i name="MODEL_EPS0">     18.54405526</i>
   <i name="MODEL_ALPHA">      1.00000000</i>
  </separator>
  <separator name="linear response parameters" >
   <i type="logical" name="LEPSILON"> F  </i>
   <i type="logical" name="LRPA"> F  </i>
   <i type="logical" name="LNABLA"> F  </i>
   <i type="logical" name="LVEL"> F  </i>
   <i type="int" name="KINTER">     0</i>
   <i name="CSHIFT">      0.10000000</i>
   <i name="OMEGAMAX">     -1.00000000</i>
   <i name="DEG_THRESHOLD">      0.00200000</i>
   <i name="RTIME">     -0.10000000</i>
   <i name="WPLASMAI">      0.00000000</i>
   <v name="DFIELD">      0.00000000      0.00000000      0.00000000</v>
   <v name="WPLASMA">      0.00000000      0.00000000      0.00000000      0.00000000      0.00000000      0.00000000      0.00000000      0.00000000      0.00000000</v>
  </separator>
  <separator name="orbital magnetization" >
   <i type="logical" name="NUCIND"> F  </i>
   <v name="MAGPOS">      0.00000000      0.00000000      0.00000000</v>
   <i type="logical" name="LNICSALL"> T  </i>
   <i type="logical" name="ORBITALMAG"> F  </i>
   <i type="logical" name="LMAGBLOCH"> F  </i>
   <i type="logical" name="LCHIMAG"> F  </i>
   <i type="logical" name="LGAUGE"> T  </i>
   <i type="int" name="MAGATOM">     0</i>
   <v name="MAGDIPOL">      0.00000000      0.00000000      0.00000000</v>
   <v name="AVECCONST">      0.00000000      0.00000000      0.00000000</v>
  </separator>
  <separator name="response functions" >
   <i type="logical" name="LADDER"> F  </i>
   <i type="logical" name="LRPAFORCE"> F  </i>
   <i type="logical" name="LFXC"> F  </i>
   <i type="logical" name="LHARTREE"> T  </i>
   <i type="int" name="IBSE">     0</i>
   <v type="int" name="KPOINT">    -1     0     0     0</v>
   <i type="logical" name="LTCTE"> F  </i>
   <i type="logical" name="LTETE"> F  </i>
   <i type="logical" name="LTRIPLET"> F  </i>
   <i type="logical" name="LFXCEPS"> F  </i>
   <i type="logical" name="LFXHEG"> F  </i>
   <i type="int" name="NATURALO">     2</i>
   <i type="logical" name="L2ORDER"> F  </i>
   <i type="logical" name="LMP2LT"> F  </i>
   <i type="logical" name="LUSEW"> F  </i>
   <i name="ENCUTGW">     -2.00000000</i>
   <i name="ENCUTGWSOFT">     -2.00000000</i>
   <i name="ENCUTLF">     -1.00000000</i>
   <i type="int" name="LMAXMP2">    -1</i>
   <i name="SCISSOR">      0.00000000</i>
   <i type="int" name="NOMEGA">     0</i>
   <i type="int" name="NOMEGAR">     0</i>
   <i type="int" name="NBANDSGW">    -1</i>
   <i type="int" name="NBANDSO">    -1</i>
   <i type="int" name="NBANDSV">    -1</i>
   <i type="int" name="NELM">   400</i>
   <i type="int" name="NELMHF">     1</i>
   <i type="int" name="DIM">     3</i>
   <i type="int" name="ANTIRES">     0</i>
   <i name="OMEGAMAX">    -30.00000000</i>
   <i name="OMEGAMIN">    -30.00000000</i>
   <i name="OMEGATL">   -200.00000000</i>
   <i type="int" name="OMEGAGRID">   140</i>
   <i name="CSHIFT">     -0.10000000</i>
   <i type="logical" name="SELFENERGY"> F  </i>
   <i type="logical" name="LSPECTRAL"> F  </i>
   <i type="logical" name="LSPECTRALGW"> F  </i>
   <i type="logical" name="LSINGLES"> F  </i>
   <i type="logical" name="LFERMIGW"> F  </i>
   <i type="logical" name="ODDONLYGW"> F  </i>
   <i type="logical" name="EVENONLYGW"> F  </i>
   <i type="int" name="NKREDLFX">     1</i>
   <i type="int" name="NKREDLFY">     1</i>
   <i type="int" name="NKREDLFZ">     1</i>
   <i type="int" name="MAXMEM">  2800</i>
   <i type="int" name="TELESCOPE">     0</i>
   <i type="int" name="TAUPAR">     1</i>
   <i type="int" name="OMEGAPAR">    -1</i>
   <i name="LAMBDA">      1.00000000</i>
  </separator>
  <separator name="External order field" >
   <i name="OFIELD_KAPPA">      0.00000000</i>
   <v name="OFIELD_K">      0.00000000      0.00000000      0.00000000</v>
   <i name="OFIELD_Q6_NEAR">      0.00000000</i>
   <i name="OFIELD_Q6_FAR">      0.00000000</i>
   <i name="OFIELD_A">      0.00000000</i>
  </separator>
  <separator name="solvation model" >
   <i type="logical" name="LSOL"> F  </i>
  </separator>
 </parameters>
 <atominfo>
  <atoms>      52 </atoms>
  <types>       2 </types>
  <array name="atoms" >
   <dimension dim="1">ion</dimension>
   <field type="string">element</field>
   <field type="int">atomtype</field>
   <set>
    <rc><c>Cu</c><c>   1</c></rc>
    <rc><c>Cu</c><c>   1</c></rc>
    <rc><c>Cu</c><c>   1</c></rc>
    <rc><c>Cu</c><c>   1</c></rc>
    <rc><c>Cu</c><c>   1</c></rc>
    <rc><c>Cu</c><c>   1</c></rc>
    <rc><c>Cu</c><c>   1</c></rc>
    <rc><c>Cu</c><c>   1</c></rc>
    <rc><c>Cu</c><c>   1</c></rc>
    <rc><c>Cu</c><c>   1</c></rc>
    <rc><c>Cu</c><c>   1</c></rc>
    <rc><c>Cu</c><c>   1</c></rc>
    <rc><c>Cu</c><c>   1</c></rc>
    <rc><c>Cu</c><c>   1</c></rc>
    <rc><c>Cu</c><c>   1</c></rc>
    <rc><c>Cu</c><c>   1</c></rc>
    <rc><c>Cu</c><c>   1</c></rc>
    <rc><c>Cu</c><c>   1</c></rc>
    <rc><c>Cu</c><c>   1</c></rc>
    <rc><c>Cu</c><c>   1</c></rc>
    <rc><c>Cu</c><c>   1</c></rc>
    <rc><c>Cu</c><c>   1</c></rc>
    <rc><c>Cu</c><c>   1</c></rc>
    <rc><c>Cu</c><c>   1</c></rc>
    <rc><c>Cu</c><c>   1</c></rc>
    <rc><c>Cu</c><c>   1</c></rc>
    <rc><c>Cu</c><c>   1</c></rc>
    <rc><c>Cu</c><c>   1</c></rc>
    <rc><c>Cu</c><c>   1</c></rc>
    <rc><c>Cu</c><c>   1</c></rc>
    <rc><c>Cu</c><c>   1</c></rc>
    <rc><c>Cu</c><c>   1</c></rc>
    <rc><c>Cu</c><c>   1</c></rc>
    <rc><c>Cu</c><c>   1</c></rc>
    <rc><c>Cu</c><c>   1</c></rc>
    <rc><c>Cu</c><c>   1</c></rc>
    <rc><c>Cu</c><c>   1</c></rc>
    <rc><c>Cu</c><c>   1</c></rc>
    <rc><c>Cu</c><c>   1</c></rc>
    <rc><c>Cu</c><c>   1</c></rc>
    <rc><c>Cu</c><c>   1</c></rc>
    <rc><c>Cu</c><c>   1</c></rc>
    <rc><c>Cu</c><c>   1</c></rc>
    <rc><c>Cu</c><c>   1</c></rc>
    <rc><c>Cu</c><c>   1</c></rc>
    <rc><c>Cu</c><c>   1</c></rc>
    <rc><c>Cu</c><c>   1</c></rc>
    <rc><c>Cu</c><c>   1</c></rc>
    <rc><c>H </c><c>   2</c></rc>
    <rc><c>H </c><c>   2</c></rc>
    <rc><c>H </c><c>   2</c></rc>
    <rc><c>H </c><c>   2</c></rc>
   </set>
  </array>
  <array name="atomtypes" >
   <dimension dim="1">type</dimension>
   <field type="int">atomspertype</field>
   <field type="string">element</field>
   <field>mass</field>
   <field>valence</field>
   <field type="string">pseudopotential</field>
   <set>
    <rc><c>  48</c><c>Cu</c><c>     63.54600000</c><c>     11.00000000</c><c>  PAW_PBE Cu 22Jun2005                  </c></rc>
    <rc><c>   4</c><c>H </c><c>      1.00000000</c><c>      1.00000000</c><c>  PAW_PBE H 15Jun2001                   </c></rc>
   </set>
  </array>
 </atominfo>
 <structure name="initialpos" >
  <crystal>
   <varray name="basis" >
    <v>      15.33600000       0.00000000       0.00000000 </v>
    <v>       0.00000000       5.11200000       0.00000000 </v>
    <v>       0.00000000       0.00000000      20.50000000 </v>
   </varray>
   <i name="volume">   1607.15145600 </i>
   <varray name="rec_basis" >
    <v>       0.06520605       0.00000000       0.00000000 </v>
    <v>       0.00000000       0.19561815       0.00000000 </v>
    <v>       0.00000000       0.00000000       0.04878049 </v>
   </varray>
  </crystal>
  <varray name="positions" >
   <v>       0.08333333       0.30868544       0.45401780 </v>
   <v>       0.25000000       0.30868544       0.45401780 </v>
   <v>       0.41666667       0.30868544       0.45401780 </v>
   <v>       0.58333333       0.30868544       0.45401780 </v>
   <v>       0.75000000       0.30868544       0.45401780 </v>
   <v>       0.91666667       0.30868544       0.45401780 </v>
   <v>       0.08333333       0.80868545       0.45401780 </v>
   <v>       0.25000000       0.80868545       0.45401780 </v>
   <v>       0.41666667       0.80868545       0.45401780 </v>
   <v>       0.58333333       0.80868545       0.45401780 </v>
   <v>       0.75000000       0.80868545       0.45401780 </v>
   <v>       0.91666667       0.80868545       0.45401780 </v>
   <v>       0.00000000       0.05868545       0.54218194 </v>
   <v>       0.16666667       0.05868545       0.54218194 </v>
   <v>       0.33333333       0.05868545       0.54218194 </v>
   <v>       0.50000000       0.05868545       0.54218194 </v>
   <v>       0.66666667       0.05868545       0.54218194 </v>
   <v>       0.83333333       0.05868545       0.54218194 </v>
   <v>       0.00000000       0.55868546       0.54218194 </v>
   <v>       0.16666667       0.55868546       0.54218194 </v>
   <v>       0.33333333       0.55868546       0.54218194 </v>
   <v>       0.50000000       0.55868546       0.54218194 </v>
   <v>       0.66666667       0.55868546       0.54218194 </v>
   <v>       0.83333333       0.55868546       0.54218194 </v>
   <v>       0.08458375       0.30915139       0.63446898 </v>
   <v>       0.25432525       0.30888180       0.63648953 </v>
   <v>       0.41912791       0.30828976       0.63117521 </v>
   <v>       0.58132364       0.30871802       0.63160065 </v>
   <v>       0.74584118       0.30884685       0.63688656 </v>
   <v>       0.91545917       0.30897598       0.63440447 </v>
   <v>       0.08458404       0.80915184       0.63446899 </v>
   <v>       0.25432576       0.80888219       0.63648955 </v>
   <v>       0.41912872       0.80828968       0.63117524 </v>
   <v>       0.58132462       0.80871838       0.63160036 </v>
   <v>       0.74584182       0.80884764       0.63688646 </v>
   <v>       0.91545948       0.80897656       0.63440448 </v>
   <v>       0.00072661       0.05872116       0.72253965 </v>
   <v>       0.17111182       0.05916629       0.72300195 </v>
   <v>       0.34508059       0.05887324       0.72536710 </v>
   <v>       0.49772651       0.31021672       0.74693751 </v>
   <v>       0.65250371       0.05969625       0.72825642 </v>
   <v>       0.83076264       0.05847303       0.72279967 </v>
   <v>       0.00072610       0.55872111       0.72253915 </v>
   <v>       0.17111154       0.55916639       0.72300163 </v>
   <v>       0.34507991       0.55887333       0.72536700 </v>
   <v>       0.49772655       0.81021628       0.74693711 </v>
   <v>       0.65250298       0.55969670       0.72825621 </v>
   <v>       0.83076177       0.55847290       0.72279913 </v>
   <v>       0.43513353       0.06038692       0.77855756 </v>
   <v>       0.43513270       0.56038789       0.77855729 </v>
   <v>       0.60896177       0.80997183       0.77355010 </v>
   <v>       0.60896266       0.30997166       0.77355004 </v>
  </varray>
  <varray name="selective"  type="logical" >
   <v type="logical" >  F  F  F </v>
   <v type="logical" >  F  F  F </v>
   <v type="logical" >  F  F  F </v>
   <v type="logical" >  F  F  F </v>
   <v type="logical" >  F  F  F </v>
   <v type="logical" >  F  F  F </v>
   <v type="logical" >  F  F  F </v>
   <v type="logical" >  F  F  F </v>
   <v type="logical" >  F  F  F </v>
   <v type="logical" >  F  F  F </v>
   <v type="logical" >  F  F  F </v>
   <v type="logical" >  F  F  F </v>
   <v type="logical" >  F  F  F </v>
   <v type="logical" >  F  F  F </v>
   <v type="logical" >  F  F  F </v>
   <v type="logical" >  F  F  F </v>
   <v type="logical" >  F  F  F </v>
   <v type="logical" >  F  F  F </v>
   <v type="logical" >  F  F  F </v>
   <v type="logical" >  F  F  F </v>
   <v type="logical" >  F  F  F </v>
   <v type="logical" >  F  F  F </v>
   <v type="logical" >  F  F  F </v>
   <v type="logical" >  F  F  F </v>
   <v type="logical" >  T  T  T </v>
   <v type="logical" >  T  T  T </v>
   <v type="logical" >  T  T  T </v>
   <v type="logical" >  T  T  T </v>
   <v type="logical" >  T  T  T </v>
   <v type="logical" >  T  T  T </v>
   <v type="logical" >  T  T  T </v>
   <v type="logical" >  T  T  T </v>
   <v type="logical" >  T  T  T </v>
   <v type="logical" >  T  T  T </v>
   <v type="logical" >  T  T  T </v>
   <v type="logical" >  T  T  T </v>
   <v type="logical" >  T  T  T </v>
   <v type="logical" >  T  T  T </v>
   <v type="logical" >  T  T  T </v>
   <v type="logical" >  T  T  T </v>
   <v type="logical" >  T  T  T </v>
   <v type="logical" >  T  T  T </v>
   <v type="logical" >  T  T  T </v>
   <v type="logical" >  T  T  T </v>
   <v type="logical" >  T  T  T </v>
   <v type="logical" >  T  T  T </v>
   <v type="logical" >  T  T  T </v>
   <v type="logical" >  T  T  T </v>
   <v type="logical" >  T  T  T </v>
   <v type="logical" >  T  T  T </v>
   <v type="logical" >  T  T  T </v>
   <v type="logical" >  T  T  T </v>
  </varray>
  <nose>
   <v>      -3.00000000       0.00000000       0.00010000       0.00010000 </v>
  </nose>
 </structure>
 <calculation>
  <scstep>
   <time name="dav">   17.67   17.75</time>
   <time name="total">   17.78   17.87</time>
   <energy>
    <i name="alphaZ">   1059.59457262 </i>
    <i name="ewald"> 178323.52698553 </i>
    <i name="hartreedc">-242425.21855383 </i>
    <i name="XCdc">   2164.23030581 </i>
    <i name="pawpsdc">  58999.53565895 </i>
    <i name="pawaedc"> -64031.53117936 </i>
    <i name="eentropy">     -0.08003509 </i>
    <i name="bandstr">   3896.19664418 </i>
    <i name="atom">  66766.42689446 </i>
    <i name="e_fr_energy">   4752.68129327 </i>
    <i name="e_wo_entrp">   4752.76132836 </i>
    <i name="e_0_energy">   4752.72131082 </i>
   </energy>
  </scstep>
  <scstep>
   <time name="dav">   17.44   17.51</time>
   <time name="total">   17.44   17.51</time>
   <energy>
    <i name="e_fr_energy">    457.13206784 </i>
    <i name="e_wo_entrp">    457.23813969 </i>
    <i name="e_0_energy">    457.18510377 </i>
   </energy>
  </scstep>
  <scstep>
   <time name="dav">   17.30   17.35</time>
   <time name="total">   17.30   17.35</time>
   <energy>
    <i name="e_fr_energy">   -152.46321037 </i>
    <i name="e_wo_entrp">   -152.36563306 </i>
    <i name="e_0_energy">   -152.41442172 </i>
   </energy>
  </scstep>
  <scstep>
   <time name="dav">   18.91   18.97</time>
   <time name="total">   18.91   18.97</time>
   <energy>
    <i name="e_fr_energy">   -191.69167343 </i>
    <i name="e_wo_entrp">   -191.60303363 </i>
    <i name="e_0_energy">   -191.64735353 </i>
   </energy>
  </scstep>
  <scstep>
   <time name="dav">   19.37   19.44</time>
   <time name="total">   19.94   20.01</time>
   <energy>
    <i name="e_fr_energy">   -192.94590861 </i>
    <i name="e_wo_entrp">   -192.85751949 </i>
    <i name="e_0_energy">   -192.90171405 </i>
   </energy>
  </scstep>
  <scstep>
   <time name="diag">    2.92    2.93</time>
   <time name="diis">    6.04    6.05</time>
   <time name="orth">    1.01    1.01</time>
   <time name="total">   10.67   10.69</time>
   <energy>
    <i name="e_fr_energy">   -175.81646139 </i>
    <i name="e_wo_entrp">   -175.74744146 </i>
    <i name="e_0_energy">   -175.78195143 </i>
   </energy>
  </scstep>
  <scstep>
   <time name="diag">    2.98    2.99</time>
   <time name="diis">    5.93    5.96</time>
   <time name="orth">    1.01    1.01</time>
   <time name="total">   10.69   10.73</time>
   <energy>
    <i name="e_fr_energy">   -158.63217116 </i>
    <i name="e_wo_entrp">   -158.56079427 </i>
    <i name="e_0_energy">   -158.59648272 </i>
   </energy>
  </scstep>
  <scstep>
   <time name="diag">    2.86    2.87</time>
   <time name="diis">    6.10    6.12</time>
   <time name="orth">    0.95    0.95</time>
   <time name="total">   10.54   10.57</time>
   <energy>
    <i name="e_fr_energy">   -158.59023968 </i>
    <i name="e_wo_entrp">   -158.49636062 </i>
    <i name="e_0_energy">   -158.54330015 </i>
   </energy>
  </scstep>
  <scstep>
   <time name="diag">    2.85    2.85</time>
   <time name="diis">    6.02    6.04</time>
   <time name="orth">    0.97    0.97</time>
   <time name="total">   10.47   10.49</time>
   <energy>
    <i name="e_fr_energy">   -158.16958608 </i>
    <i name="e_wo_entrp">   -158.07648766 </i>
    <i name="e_0_energy">   -158.12303687 </i>
   </energy>
  </scstep>
  <scstep>
   <time name="diag">    2.80    2.81</time>
   <time name="diis">    6.17    6.19</time>
   <time name="orth">    0.96    0.96</time>
   <time name="total">   10.56   10.59</time>
   <energy>
    <i name="e_fr_energy">   -158.12095553 </i>
    <i name="e_wo_entrp">   -158.02677708 </i>
    <i name="e_0_energy">   -158.07386631 </i>
   </energy>
  </scstep>
  <scstep>
   <time name="diag">    2.79    2.79</time>
   <time name="diis">    6.30    6.32</time>
   <time name="orth">    1.01    1.01</time>
   <time name="total">   10.81   10.83</time>
   <energy>
    <i name="e_fr_energy">   -158.07823316 </i>
    <i name="e_wo_entrp">   -157.98927681 </i>
    <i name="e_0_energy">   -158.03375499 </i>
   </energy>
  </scstep>
  <scstep>
   <time name="diag">    2.90    2.90</time>
   <time name="diis">    6.37    6.38</time>
   <time name="orth">    1.01    1.01</time>
   <time name="total">   10.97   11.00</time>
   <energy>
    <i name="e_fr_energy">   -158.06608397 </i>
    <i name="e_wo_entrp">   -157.97637185 </i>
    <i name="e_0_energy">   -158.02122791 </i>
   </energy>
  </scstep>
  <scstep>
   <time name="diag">    2.90    2.90</time>
   <time name="diis">    6.01    6.03</time>
   <time name="orth">    1.02    1.02</time>
   <time name="total">   10.59   10.62</time>
   <energy>
    <i name="e_fr_energy">   -158.06038597 </i>
    <i name="e_wo_entrp">   -157.96903185 </i>
    <i name="e_0_energy">   -158.01470891 </i>
   </energy>
  </scstep>
  <scstep>
   <time name="diag">    2.92    2.92</time>
   <time name="diis">    6.07    6.09</time>
   <time name="orth">    1.04    1.04</time>
   <time name="total">   10.71   10.74</time>
   <energy>
    <i name="e_fr_energy">   -158.05529240 </i>
    <i name="e_wo_entrp">   -157.96414916 </i>
    <i name="e_0_energy">   -158.00972078 </i>
   </energy>
  </scstep>
  <scstep>
   <time name="diag">    2.92    2.92</time>
   <time name="diis">    6.40    6.42</time>
   <time name="orth">    1.02    1.02</time>
   <time name="total">   11.02   11.04</time>
   <energy>
    <i name="e_fr_energy">   -158.05410011 </i>
    <i name="e_wo_entrp">   -157.96226555 </i>
    <i name="e_0_energy">   -158.00818283 </i>
   </energy>
  </scstep>
  <scstep>
   <time name="diag">    3.04    3.04</time>
   <time name="diis">    6.00    6.01</time>
   <time name="orth">    0.96    0.96</time>
   <time name="total">   10.64   10.66</time>
   <energy>
    <i name="e_fr_energy">   -158.05384849 </i>
    <i name="e_wo_entrp">   -157.96200493 </i>
    <i name="e_0_energy">   -158.00792671 </i>
   </energy>
  </scstep>
  <scstep>
   <time name="diag">    2.83    2.83</time>
   <time name="diis">    6.03    6.05</time>
   <time name="orth">    1.00    1.00</time>
   <time name="total">   10.53   10.55</time>
   <energy>
    <i name="e_fr_energy">   -158.05452020 </i>
    <i name="e_wo_entrp">   -157.96248465 </i>
    <i name="e_0_energy">   -158.00850242 </i>
   </energy>
  </scstep>
  <scstep>
   <time name="diag">    2.89    2.90</time>
   <time name="diis">    5.76    5.77</time>
   <time name="orth">    1.00    1.00</time>
   <time name="total">   10.34   10.37</time>
   <energy>
    <i name="e_fr_energy">   -158.05563995 </i>
    <i name="e_wo_entrp">   -157.96353803 </i>
    <i name="e_0_energy">   -158.00958899 </i>
   </energy>
  </scstep>
  <scstep>
   <time name="diag">    2.94    2.94</time>
   <time name="diis">    5.73    5.74</time>
   <time name="orth">    1.01    1.01</time>
   <time name="total">   10.39   10.41</time>
   <energy>
    <i name="e_fr_energy">   -158.05631514 </i>
    <i name="e_wo_entrp">   -157.96421169 </i>
    <i name="e_0_energy">   -158.01026342 </i>
   </energy>
  </scstep>
  <scstep>
   <time name="diag">    2.91    2.91</time>
   <time name="diis">    4.26    4.26</time>
   <time name="orth">    0.99    0.99</time>
   <time name="total">    8.85    8.86</time>
   <energy>
    <i name="e_fr_energy">   -158.05653579 </i>
    <i name="e_wo_entrp">   -157.96446965 </i>
    <i name="e_0_energy">   -158.01050272 </i>
   </energy>
  </scstep>
  <scstep>
   <time name="diag">    3.07    3.07</time>
   <time name="diis">    3.89    3.90</time>
   <time name="orth">    0.95    0.96</time>
   <time name="total">    8.57    8.58</time>
   <energy>
    <i name="e_fr_energy">   -158.05676998 </i>
    <i name="e_wo_entrp">   -157.96468973 </i>
    <i name="e_0_energy">   -158.01072985 </i>
   </energy>
  </scstep>
  <scstep>
   <time name="diag">    2.80    2.81</time>
   <time name="diis">    3.96    3.97</time>
   <time name="orth">    0.98    0.98</time>
   <time name="total">    8.37    8.39</time>
   <energy>
    <i name="e_fr_energy">   -158.05699571 </i>
    <i name="e_wo_entrp">   -157.96494672 </i>
    <i name="e_0_energy">   -158.01097121 </i>
   </energy>
  </scstep>
  <scstep>
   <time name="diag">    2.83    2.84</time>
   <time name="diis">    3.87    3.88</time>
   <time name="orth">    1.03    1.03</time>
   <time name="total">    8.43    8.45</time>
   <energy>
    <i name="e_fr_energy">   -158.05716658 </i>
    <i name="e_wo_entrp">   -157.96510136 </i>
    <i name="e_0_energy">   -158.01113397 </i>
   </energy>
  </scstep>
  <scstep>
   <time name="diag">    2.89    2.90</time>
   <time name="diis">    3.65    3.68</time>
   <time name="orth">    0.99    0.99</time>
   <time name="total">    8.23    8.26</time>
   <energy>
    <i name="e_fr_energy">   -158.05727624 </i>
    <i name="e_wo_entrp">   -157.96521089 </i>
    <i name="e_0_energy">   -158.01124356 </i>
   </energy>
  </scstep>
  <scstep>
   <time name="diag">    2.87    2.88</time>
   <time name="diis">    3.88    3.89</time>
   <time name="orth">    1.00    1.00</time>
   <time name="total">    8.44    8.46</time>
   <energy>
    <i name="e_fr_energy">   -158.05745253 </i>
    <i name="e_wo_entrp">   -157.96538652 </i>
    <i name="e_0_energy">   -158.01141953 </i>
   </energy>
  </scstep>
  <scstep>
   <time name="diag">    2.91    2.91</time>
   <time name="diis">    3.83    3.83</time>
   <time name="orth">    0.96    0.97</time>
   <time name="total">    8.34    8.35</time>
   <energy>
    <i name="e_fr_energy">   -158.05750120 </i>
    <i name="e_wo_entrp">   -157.96543380 </i>
    <i name="e_0_energy">   -158.01146750 </i>
   </energy>
  </scstep>
  <scstep>
   <time name="diag">    2.78    2.78</time>
   <time name="diis">    3.56    3.57</time>
   <time name="orth">    0.95    0.95</time>
   <time name="total">    7.92    7.94</time>
   <energy>
    <i name="e_fr_energy">   -158.05752755 </i>
    <i name="e_wo_entrp">   -157.96545659 </i>
    <i name="e_0_energy">   -158.01149207 </i>
   </energy>
  </scstep>
  <scstep>
   <time name="diag">    2.75    2.76</time>
   <time name="diis">    3.42    3.43</time>
   <time name="orth">    0.95    0.95</time>
   <time name="total">    7.21    7.22</time>
   <energy>
    <i name="alphaZ">   1059.59457262 </i>
    <i name="ewald"> 178323.52698553 </i>
    <i name="hartreedc">-241812.07627880 </i>
    <i name="XCdc">   2121.02051359 </i>
    <i name="pawpsdc">  62117.18012472 </i>
    <i name="pawaedc"> -67240.89085466 </i>
    <i name="eentropy">     -0.09207066 </i>
    <i name="bandstr">  -1492.74742306 </i>
    <i name="atom">  66766.42689446 </i>
    <i name="e_fr_energy">   -158.05753627 </i>
    <i name="e_wo_entrp">   -157.96546561 </i>
    <i name="e_0_energy">   -158.01150094 </i>
   </energy>
  </scstep>
  <structure>
   <crystal>
    <varray name="basis" >
     <v>      15.33600000       0.00000000       0.00000000 </v>
     <v>       0.00000000       5.11200000       0.00000000 </v>
     <v>       0.00000000       0.00000000      20.50000000 </v>
    </varray>
    <i name="volume">   1607.15145600 </i>
    <varray name="rec_basis" >
     <v>       0.06520605       0.00000000       0.00000000 </v>
     <v>       0.00000000       0.19561815       0.00000000 </v>
     <v>       0.00000000       0.00000000       0.04878049 </v>
    </varray>
   </crystal>
   <varray name="positions" >
    <v>       0.08333333       0.30868544       0.45401780 </v>
    <v>       0.25000000       0.30868544       0.45401780 </v>
    <v>       0.41666667       0.30868544       0.45401780 </v>
    <v>       0.58333333       0.30868544       0.45401780 </v>
    <v>       0.75000000       0.30868544       0.45401780 </v>
    <v>       0.91666667       0.30868544       0.45401780 </v>
    <v>       0.08333333       0.80868545       0.45401780 </v>
    <v>       0.25000000       0.80868545       0.45401780 </v>
    <v>       0.41666667       0.80868545       0.45401780 </v>
    <v>       0.58333333       0.80868545       0.45401780 </v>
    <v>       0.75000000       0.80868545       0.45401780 </v>
    <v>       0.91666667       0.80868545       0.45401780 </v>
    <v>       0.00000000       0.05868545       0.54218194 </v>
    <v>       0.16666667       0.05868545       0.54218194 </v>
    <v>       0.33333333       0.05868545       0.54218194 </v>
    <v>       0.50000000       0.05868545       0.54218194 </v>
    <v>       0.66666667       0.05868545       0.54218194 </v>
    <v>       0.83333333       0.05868545       0.54218194 </v>
    <v>       0.00000000       0.55868546       0.54218194 </v>
    <v>       0.16666667       0.55868546       0.54218194 </v>
    <v>       0.33333333       0.55868546       0.54218194 </v>
    <v>       0.50000000       0.55868546       0.54218194 </v>
    <v>       0.66666667       0.55868546       0.54218194 </v>
    <v>       0.83333333       0.55868546       0.54218194 </v>
    <v>       0.08458375       0.30915139       0.63446898 </v>
    <v>       0.25432525       0.30888180       0.63648953 </v>
    <v>       0.41912791       0.30828976       0.63117521 </v>
    <v>       0.58132364       0.30871802       0.63160065 </v>
    <v>       0.74584118       0.30884685       0.63688656 </v>
    <v>       0.91545917       0.30897598       0.63440447 </v>
    <v>       0.08458404       0.80915184       0.63446899 </v>
    <v>       0.25432576       0.80888219       0.63648955 </v>
    <v>       0.41912872       0.80828968       0.63117524 </v>
    <v>       0.58132462       0.80871838       0.63160036 </v>
    <v>       0.74584182       0.80884764       0.63688646 </v>
    <v>       0.91545948       0.80897656       0.63440448 </v>
    <v>       0.00072661       0.05872116       0.72253965 </v>
    <v>       0.17111182       0.05916629       0.72300195 </v>
    <v>       0.34508059       0.05887324       0.72536710 </v>
    <v>       0.49772651       0.31021672       0.74693751 </v>
    <v>       0.65250371       0.05969625       0.72825642 </v>
    <v>       0.83076264       0.05847303       0.72279967 </v>
    <v>       0.00072610       0.55872111       0.72253915 </v>
    <v>       0.17111154       0.55916639       0.72300163 </v>
    <v>       0.34507991       0.55887333       0.72536700 </v>
    <v>       0.49772655       0.81021628       0.74693711 </v>
    <v>       0.65250298       0.55969670       0.72825621 </v>
    <v>       0.83076177       0.55847290       0.72279913 </v>
    <v>       0.43513353       0.06038692       0.77855756 </v>
    <v>       0.43513270       0.56038789       0.77855729 </v>
    <v>       0.60896177       0.80997183       0.77355010 </v>
    <v>       0.60896266       0.30997166       0.77355004 </v>
   </varray>
  </structure>
  <varray name="forces" >
   <v>      -0.00512960       0.00186320      -0.07104926 </v>
   <v>      -0.00354512      -0.00136435      -0.07683146 </v>
   <v>       0.00107730       0.00203937      -0.08893383 </v>
   <v>      -0.00405420       0.00200403      -0.08352983 </v>
   <v>       0.01428665      -0.00131549      -0.07069468 </v>
   <v>      -0.00583852       0.00188855      -0.07805126 </v>
   <v>      -0.00512960       0.00186320      -0.07104926 </v>
   <v>      -0.00354512      -0.00136435      -0.07683146 </v>
   <v>       0.00107730       0.00203937      -0.08893383 </v>
   <v>      -0.00405420       0.00200403      -0.08352983 </v>
   <v>       0.01428665      -0.00131549      -0.07069468 </v>
   <v>      -0.00583852       0.00188855      -0.07805126 </v>
   <v>       0.01777701      -0.00302348       0.13048822 </v>
   <v>       0.09074022       0.00113638       0.18889476 </v>
   <v>      -0.08171984      -0.00192522       0.00471216 </v>
   <v>       0.02282612      -0.00730418      -0.14615490 </v>
   <v>       0.08062109      -0.00029707       0.05363174 </v>
   <v>      -0.11530720       0.00035902       0.18811992 </v>
   <v>       0.01777701      -0.00302348       0.13048822 </v>
   <v>       0.09074022       0.00113638       0.18889476 </v>
   <v>      -0.08171984      -0.00192522       0.00471216 </v>
   <v>       0.02282612      -0.00730418      -0.14615490 </v>
   <v>       0.08062109      -0.00029707       0.05363174 </v>
   <v>      -0.11530720       0.00035902       0.18811992 </v>
   <v>      -0.00169864      -0.00081643       0.00130619 </v>
   <v>      -0.00151018       0.00120246       0.00065009 </v>
   <v>      -0.00257191       0.00171237       0.00618295 </v>
   <v>      -0.00014841      -0.00023034       0.00299654 </v>
   <v>       0.00095282      -0.00051621       0.00282170 </v>
   <v>      -0.00073924      -0.00129087       0.00212747 </v>
   <v>      -0.00169864      -0.00081643       0.00130619 </v>
   <v>      -0.00151018       0.00120246       0.00065009 </v>
   <v>      -0.00257191       0.00171237       0.00618295 </v>
   <v>      -0.00014841      -0.00023034       0.00299654 </v>
   <v>       0.00095282      -0.00051621       0.00282170 </v>
   <v>      -0.00073924      -0.00129087       0.00212747 </v>
   <v>       0.00039236      -0.00159478       0.00420243 </v>
   <v>       0.00052236      -0.00057044       0.00100000 </v>
   <v>      -0.00759040       0.00279711       0.00940508 </v>
   <v>      -0.00149827       0.00240782       0.00330284 </v>
   <v>       0.00467455       0.00117487       0.00574849 </v>
   <v>       0.00178803      -0.00171805       0.00603777 </v>
   <v>       0.00039236      -0.00159478       0.00420243 </v>
   <v>       0.00052236      -0.00057044       0.00100000 </v>
   <v>      -0.00759040       0.00279711       0.00940508 </v>
   <v>      -0.00149827       0.00240782       0.00330284 </v>
   <v>       0.00467455       0.00117487       0.00574849 </v>
   <v>       0.00178803      -0.00171805       0.00603777 </v>
   <v>      -0.00341169       0.00188990       0.00214057 </v>
   <v>      -0.00341169       0.00188990       0.00214057 </v>
   <v>      -0.00089532       0.00149183       0.00147627 </v>
   <v>      -0.00089532       0.00149183       0.00147627 </v>
  </varray>
  <varray name="stress" >
   <v>      -8.71322096       0.00887128      -0.11765218 </v>
   <v>       0.00887130      -2.11157677      -0.03608571 </v>
   <v>      -0.11765216      -0.03608569      -1.04980424 </v>
  </varray>
  <energy>
   <i name="e_fr_energy">   -158.05753627 </i>
   <i name="e_wo_entrp">   -158.01150094 </i>
   <i name="e_0_energy">     -0.09207066 </i>
  </energy>
  <time name="totalsc">  327.76  328.63</time>
 </calculation>
 <calculation>
  <scstep>
   <time name="dav">   17.82   17.88</time>
   <time name="total">   18.58   18.64</time>
   <energy>
    <i name="alphaZ">   1059.59457262 </i>
    <i name="ewald"> 178314.96021806 </i>
    <i name="hartreedc">-241803.50493941 </i>
    <i name="XCdc">   2121.01590528 </i>
    <i name="pawpsdc">  62117.22421659 </i>
    <i name="pawaedc"> -67240.94104174 </i>
    <i name="eentropy">     -0.09207925 </i>
    <i name="bandstr">  -1492.74130358 </i>
    <i name="atom">  66766.42689446 </i>
    <i name="e_fr_energy">   -158.05755696 </i>
    <i name="e_wo_entrp">   -157.96547771 </i>
    <i name="e_0_energy">   -158.01151733 </i>
   </energy>
  </scstep>
  <scstep>
   <time name="diag">    2.95    2.95</time>
   <time name="diis">    5.45    5.46</time>
   <time name="orth">    1.03    1.03</time>
   <time name="total">   10.15   10.18</time>
   <energy>
    <i name="e_fr_energy">   -158.05756558 </i>
    <i name="e_wo_entrp">   -157.96548813 </i>
    <i name="e_0_energy">   -158.01152685 </i>
   </energy>
  </scstep>
  <scstep>
   <time name="diag">    2.91    2.92</time>
   <time name="diis">    3.50    3.51</time>
   <time name="orth">    0.99    0.99</time>
   <time name="total">    8.10    8.12</time>
   <energy>
    <i name="e_fr_energy">   -158.05756660 </i>
    <i name="e_wo_entrp">   -157.96548860 </i>
    <i name="e_0_energy">   -158.01152760 </i>
   </energy>
  </scstep>
  <scstep>
   <time name="diag">    2.92    2.93</time>
   <time name="diis">    3.48    3.49</time>
   <time name="orth">    1.00    1.00</time>
   <time name="total">    8.09    8.11</time>
   <energy>
    <i name="e_fr_energy">   -158.05756675 </i>
    <i name="e_wo_entrp">   -157.96548761 </i>
    <i name="e_0_energy">   -158.01152718 </i>
   </energy>
  </scstep>
  <scstep>
   <time name="diag">    2.87    2.88</time>
   <time name="diis">    3.46    3.47</time>
   <time name="orth">    0.99    0.99</time>
   <time name="total">    7.41    7.43</time>
   <energy>
    <i name="alphaZ">   1059.59457262 </i>
    <i name="ewald"> 178314.96021806 </i>
    <i name="hartreedc">-241803.50384428 </i>
    <i name="XCdc">   2121.01679267 </i>
    <i name="pawpsdc">  62116.93275857 </i>
    <i name="pawaedc"> -67240.64442928 </i>
    <i name="eentropy">     -0.09207997 </i>
    <i name="bandstr">  -1492.74844953 </i>
    <i name="atom">  66766.42689446 </i>
    <i name="e_fr_energy">   -158.05756670 </i>
    <i name="e_wo_entrp">   -157.96548673 </i>
    <i name="e_0_energy">   -158.01152671 </i>
   </energy>
  </scstep>
  <structure>
   <crystal>
    <varray name="basis" >
     <v>      15.33600000       0.00000000       0.00000000 </v>
     <v>       0.00000000       5.11200000       0.00000000 </v>
     <v>       0.00000000       0.00000000      20.50000000 </v>
    </varray>
    <i name="volume">   1607.15145600 </i>
    <varray name="rec_basis" >
     <v>       0.06520605       0.00000000       0.00000000 </v>
     <v>       0.00000000       0.19561815       0.00000000 </v>
     <v>       0.00000000       0.00000000       0.04878049 </v>
    </varray>
   </crystal>
   <varray name="positions" >
    <v>       0.08333333       0.30868544       0.45401780 </v>
    <v>       0.25000000       0.30868544       0.45401780 </v>
    <v>       0.41666667       0.30868544       0.45401780 </v>
    <v>       0.58333333       0.30868544       0.45401780 </v>
    <v>       0.75000000       0.30868544       0.45401780 </v>
    <v>       0.91666667       0.30868544       0.45401780 </v>
    <v>       0.08333333       0.80868545       0.45401780 </v>
    <v>       0.25000000       0.80868545       0.45401780 </v>
    <v>       0.41666667       0.80868545       0.45401780 </v>
    <v>       0.58333333       0.80868545       0.45401780 </v>
    <v>       0.75000000       0.80868545       0.45401780 </v>
    <v>       0.91666667       0.80868545       0.45401780 </v>
    <v>       0.00000000       0.05868545       0.54218194 </v>
    <v>       0.16666667       0.05868545       0.54218194 </v>
    <v>       0.33333333       0.05868545       0.54218194 </v>
    <v>       0.50000000       0.05868545       0.54218194 </v>
    <v>       0.66666667       0.05868545       0.54218194 </v>
    <v>       0.83333333       0.05868545       0.54218194 </v>
    <v>       0.00000000       0.55868546       0.54218194 </v>
    <v>       0.16666667       0.55868546       0.54218194 </v>
    <v>       0.33333333       0.55868546       0.54218194 </v>
    <v>       0.50000000       0.55868546       0.54218194 </v>
    <v>       0.66666667       0.55868546       0.54218194 </v>
    <v>       0.83333333       0.55868546       0.54218194 </v>
    <v>       0.08457947       0.30914522       0.63447144 </v>
    <v>       0.25432145       0.30889088       0.63649075 </v>
    <v>       0.41912143       0.30830269       0.63118685 </v>
    <v>       0.58132327       0.30871628       0.63160630 </v>
    <v>       0.74584358       0.30884295       0.63689187 </v>
    <v>       0.91545731       0.30896623       0.63440848 </v>
    <v>       0.08457977       0.80914568       0.63447145 </v>
    <v>       0.25432196       0.80889127       0.63649078 </v>
    <v>       0.41912224       0.80830261       0.63118688 </v>
    <v>       0.58132425       0.80871664       0.63160600 </v>
    <v>       0.74584422       0.80884375       0.63689177 </v>
    <v>       0.91545762       0.80896681       0.63440849 </v>
    <v>       0.00072760       0.05870912       0.72254756 </v>
    <v>       0.17111314       0.05916198       0.72300383 </v>
    <v>       0.34506149       0.05889436       0.72538481 </v>
    <v>       0.49772274       0.31023490       0.74694373 </v>
    <v>       0.65251547       0.05970512       0.72826724 </v>
    <v>       0.83076714       0.05846006       0.72281104 </v>
    <v>       0.00072709       0.55870907       0.72254706 </v>
    <v>       0.17111286       0.55916209       0.72300352 </v>
    <v>       0.34506081       0.55889445       0.72538471 </v>
    <v>       0.49772278       0.81023446       0.74694333 </v>
    <v>       0.65251474       0.55970557       0.72826703 </v>
    <v>       0.83076627       0.55845993       0.72281050 </v>
    <v>       0.43512494       0.06040119       0.77856159 </v>
    <v>       0.43512411       0.56040216       0.77856132 </v>
    <v>       0.60895952       0.80998309       0.77355288 </v>
    <v>       0.60896041       0.30998292       0.77355282 </v>
   </varray>
  </structure>
  <varray name="forces" >
   <v>      -0.00518752       0.00188982      -0.07069002 </v>
   <v>      -0.00360576      -0.00133829      -0.07642471 </v>
   <v>       0.00101368       0.00206695      -0.08853508 </v>
   <v>      -0.00409166       0.00202858      -0.08315823 </v>
   <v>       0.01422443      -0.00128987      -0.07028727 </v>
   <v>      -0.00587849       0.00191457      -0.07769753 </v>
   <v>      -0.00518752       0.00188982      -0.07069002 </v>
   <v>      -0.00360576      -0.00133829      -0.07642471 </v>
   <v>       0.00101368       0.00206695      -0.08853508 </v>
   <v>      -0.00409166       0.00202858      -0.08315823 </v>
   <v>       0.01422443      -0.00128987      -0.07028727 </v>
   <v>      -0.00587849       0.00191457      -0.07769753 </v>
   <v>       0.01763262      -0.00305070       0.13098510 </v>
   <v>       0.09055235       0.00115943       0.18939279 </v>
   <v>      -0.08158214      -0.00181443       0.00548795 </v>
   <v>       0.02245500      -0.00722017      -0.14484302 </v>
   <v>       0.08054844      -0.00029183       0.05445546 </v>
   <v>      -0.11533285       0.00034234       0.18865473 </v>
   <v>       0.01763262      -0.00305070       0.13098510 </v>
   <v>       0.09055235       0.00115943       0.18939279 </v>
   <v>      -0.08158214      -0.00181443       0.00548795 </v>
   <v>       0.02245500      -0.00722017      -0.14484302 </v>
   <v>       0.08054844      -0.00029183       0.05445546 </v>
   <v>      -0.11533285       0.00034234       0.18865473 </v>
   <v>      -0.00122963      -0.00056967       0.00131356 </v>
   <v>      -0.00104815       0.00087967       0.00091654 </v>
   <v>      -0.00182463       0.00125614       0.00470435 </v>
   <v>      -0.00017843      -0.00014267       0.00269399 </v>
   <v>       0.00065408      -0.00037515       0.00269101 </v>
   <v>      -0.00051870      -0.00091416       0.00199954 </v>
   <v>      -0.00122963      -0.00056967       0.00131356 </v>
   <v>      -0.00104815       0.00087967       0.00091654 </v>
   <v>      -0.00182463       0.00125614       0.00470435 </v>
   <v>      -0.00017843      -0.00014267       0.00269399 </v>
   <v>       0.00065408      -0.00037515       0.00269101 </v>
   <v>      -0.00051870      -0.00091416       0.00199954 </v>
   <v>       0.00021878      -0.00118736       0.00338146 </v>
   <v>      -0.00000720      -0.00035982       0.00121756 </v>
   <v>      -0.00573468       0.00216338       0.00710400 </v>
   <v>      -0.00125781       0.00185599       0.00292316 </v>
   <v>       0.00305496       0.00078623       0.00453277 </v>
   <v>       0.00132779      -0.00130268       0.00480439 </v>
   <v>       0.00021878      -0.00118736       0.00338146 </v>
   <v>      -0.00000720      -0.00035982       0.00121756 </v>
   <v>      -0.00573468       0.00216338       0.00710400 </v>
   <v>      -0.00125781       0.00185599       0.00292316 </v>
   <v>       0.00305496       0.00078623       0.00453277 </v>
   <v>       0.00132779      -0.00130268       0.00480439 </v>
   <v>      -0.00322754       0.00200362       0.00250255 </v>
   <v>      -0.00322754       0.00200362       0.00250255 </v>
   <v>      -0.00097694       0.00151009       0.00187496 </v>
   <v>      -0.00097694       0.00151009       0.00187496 </v>
  </varray>
  <varray name="stress" >
   <v>      -8.70501190       0.00864340      -0.11719677 </v>
   <v>       0.00864341      -2.10282882      -0.03589960 </v>
   <v>      -0.11719682      -0.03589960      -1.04573184 </v>
  </varray>
  <energy>
   <i name="e_fr_energy">   -158.05756670 </i>
   <i name="e_wo_entrp">   -158.01152671 </i>
   <i name="e_0_energy">     -0.09207997 </i>
  </energy>
  <time name="totalsc">   64.25   64.42</time>
  <eigenvalues>
   <array>
    <dimension dim="1">band</dimension>
    <dimension dim="2">kpoint</dimension>
    <dimension dim="3">spin</dimension>
    <field>eigene</field>
    <field>occ</field>
    <set>
     <set comment="spin 1">
      <set comment="kpoint 1">
       <r>   -8.7420    1.0000 </r>
       <r>   -8.2054    1.0000 </r>
       <r>   -7.9366    1.0000 </r>
       <r>   -7.7333    1.0000 </r>
       <r>   -7.0266    1.0000 </r>
       <r>   -6.7697    1.0000 </r>
       <r>   -6.2460    1.0000 </r>
       <r>   -6.1588    1.0000 </r>
       <r>   -5.9287    1.0000 </r>
       <r>   -5.8512    1.0000 </r>
       <r>   -5.7021    1.0000 </r>
       <r>   -5.6942    1.0000 </r>
       <r>   -5.1023    1.0000 </r>
       <r>   -4.9897    1.0000 </r>
       <r>   -4.8809    1.0000 </r>
       <r>   -4.7546    1.0000 </r>
       <r>   -4.7540    1.0000 </r>
       <r>   -4.6987    1.0000 </r>
       <r>   -4.6679    1.0000 </r>
       <r>   -4.5949    1.0000 </r>
       <r>   -4.5353    1.0000 </r>
       <r>   -4.4866    1.0000 </r>
       <r>   -4.4244    1.0000 </r>
       <r>   -4.3936    1.0000 </r>
       <r>   -4.3872    1.0000 </r>
       <r>   -4.3739    1.0000 </r>
       <r>   -4.3647    1.0000 </r>
       <r>   -4.3559    1.0000 </r>
       <r>   -4.3231    1.0000 </r>
       <r>   -4.3024    1.0000 </r>
       <r>   -4.2690    1.0000 </r>
       <r>   -4.2584    1.0000 </r>
       <r>   -4.2401    1.0000 </r>
       <r>   -4.2342    1.0000 </r>
       <r>   -4.2049    1.0000 </r>
       <r>   -4.1426    1.0000 </r>
       <r>   -4.1294    1.0000 </r>
       <r>   -4.1000    1.0000 </r>
       <r>   -4.0645    1.0000 </r>
       <r>   -4.0394    1.0000 </r>
       <r>   -4.0177    1.0000 </r>
       <r>   -3.9966    1.0000 </r>
       <r>   -3.9850    1.0000 </r>
       <r>   -3.9846    1.0000 </r>
       <r>   -3.9834    1.0000 </r>
       <r>   -3.9730    1.0000 </r>
       <r>   -3.9486    1.0000 </r>
       <r>   -3.9424    1.0000 </r>
       <r>   -3.9205    1.0000 </r>
       <r>   -3.9203    1.0000 </r>
       <r>   -3.9034    1.0000 </r>
       <r>   -3.8762    1.0000 </r>
       <r>   -3.8360    1.0000 </r>
       <r>   -3.8013    1.0000 </r>
       <r>   -3.7325    1.0000 </r>
       <r>   -3.7194    1.0000 </r>
       <r>   -3.6854    1.0000 </r>
       <r>   -3.6811    1.0000 </r>
       <r>   -3.6605    1.0000 </r>
       <r>   -3.6600    1.0000 </r>
       <r>   -3.5763    1.0000 </r>
       <r>   -3.5571    1.0000 </r>
       <r>   -3.5532    1.0000 </r>
       <r>   -3.4941    1.0000 </r>
       <r>   -3.4811    1.0000 </r>
       <r>   -3.4529    1.0000 </r>
       <r>   -3.4425    1.0000 </r>
       <r>   -3.4412    1.0000 </r>
       <r>   -3.4357    1.0000 </r>
       <r>   -3.4342    1.0000 </r>
       <r>   -3.3935    1.0000 </r>
       <r>   -3.3922    1.0000 </r>
       <r>   -3.3755    1.0000 </r>
       <r>   -3.3740    1.0000 </r>
       <r>   -3.3220    1.0000 </r>
       <r>   -3.2683    1.0000 </r>
       <r>   -3.2354    1.0000 </r>
       <r>   -3.2120    1.0000 </r>
       <r>   -3.1966    1.0000 </r>
       <r>   -3.1923    1.0000 </r>
       <r>   -3.1571    1.0000 </r>
       <r>   -3.1539    1.0000 </r>
       <r>   -3.1415    1.0000 </r>
       <r>   -3.1097    1.0000 </r>
       <r>   -3.0953    1.0000 </r>
       <r>   -3.0789    1.0000 </r>
       <r>   -3.0628    1.0000 </r>
       <r>   -3.0483    1.0000 </r>
       <r>   -3.0250    1.0000 </r>
       <r>   -3.0233    1.0000 </r>
       <r>   -3.0168    1.0000 </r>
       <r>   -3.0163    1.0000 </r>
       <r>   -2.9928    1.0000 </r>
       <r>   -2.9516    1.0000 </r>
       <r>   -2.9371    1.0000 </r>
       <r>   -2.9363    1.0000 </r>
       <r>   -2.9291    1.0000 </r>
       <r>   -2.9203    1.0000 </r>
       <r>   -2.9082    1.0000 </r>
       <r>   -2.9041    1.0000 </r>
       <r>   -2.9012    1.0000 </r>
       <r>   -2.8858    1.0000 </r>
       <r>   -2.8795    1.0000 </r>
       <r>   -2.8680    1.0000 </r>
       <r>   -2.8505    1.0000 </r>
       <r>   -2.8481    1.0000 </r>
       <r>   -2.8472    1.0000 </r>
       <r>   -2.8328    1.0000 </r>
       <r>   -2.8213    1.0000 </r>
       <r>   -2.7802    1.0000 </r>
       <r>   -2.7736    1.0000 </r>
       <r>   -2.7681    1.0000 </r>
       <r>   -2.7544    1.0000 </r>
       <r>   -2.7428    1.0000 </r>
       <r>   -2.7271    1.0000 </r>
       <r>   -2.7248    1.0000 </r>
       <r>   -2.7207    1.0000 </r>
       <r>   -2.7162    1.0000 </r>
       <r>   -2.7161    1.0000 </r>
       <r>   -2.7086    1.0000 </r>
       <r>   -2.6764    1.0000 </r>
       <r>   -2.6728    1.0000 </r>
       <r>   -2.6695    1.0000 </r>
       <r>   -2.6619    1.0000 </r>
       <r>   -2.6614    1.0000 </r>
       <r>   -2.6537    1.0000 </r>
       <r>   -2.6417    1.0000 </r>
       <r>   -2.6361    1.0000 </r>
       <r>   -2.6344    1.0000 </r>
       <r>   -2.6248    1.0000 </r>
       <r>   -2.6228    1.0000 </r>
       <r>   -2.5983    1.0000 </r>
       <r>   -2.5712    1.0000 </r>
       <r>   -2.5696    1.0000 </r>
       <r>   -2.5662    1.0000 </r>
       <r>   -2.5630    1.0000 </r>
       <r>   -2.5500    1.0000 </r>
       <r>   -2.5373    1.0000 </r>
       <r>   -2.5009    1.0000 </r>
       <r>   -2.4826    1.0000 </r>
       <r>   -2.4766    1.0000 </r>
       <r>   -2.4579    1.0000 </r>
       <r>   -2.4359    1.0000 </r>
       <r>   -2.4062    1.0000 </r>
       <r>   -2.4053    1.0000 </r>
       <r>   -2.3796    1.0000 </r>
       <r>   -2.3713    1.0000 </r>
       <r>   -2.3644    1.0000 </r>
       <r>   -2.3577    1.0000 </r>
       <r>   -2.3555    1.0000 </r>
       <r>   -2.3475    1.0000 </r>
       <r>   -2.3463    1.0000 </r>
       <r>   -2.3340    1.0000 </r>
       <r>   -2.3290    1.0000 </r>
       <r>   -2.3097    1.0000 </r>
       <r>   -2.3058    1.0000 </r>
       <r>   -2.3054    1.0000 </r>
       <r>   -2.2670    1.0000 </r>
       <r>   -2.2501    1.0000 </r>
       <r>   -2.2496    1.0000 </r>
       <r>   -2.2352    1.0000 </r>
       <r>   -2.2228    1.0000 </r>
       <r>   -2.2007    1.0000 </r>
       <r>   -2.1869    1.0000 </r>
       <r>   -2.1760    1.0000 </r>
       <r>   -2.1662    1.0000 </r>
       <r>   -2.1595    1.0000 </r>
       <r>   -2.1472    1.0000 </r>
       <r>   -2.1439    1.0000 </r>
       <r>   -2.1096    1.0000 </r>
       <r>   -2.0964    1.0000 </r>
       <r>   -2.0917    1.0000 </r>
       <r>   -2.0810    1.0000 </r>
       <r>   -2.0731    1.0000 </r>
       <r>   -2.0685    1.0000 </r>
       <r>   -2.0648    1.0000 </r>
       <r>   -2.0600    1.0000 </r>
       <r>   -2.0286    1.0000 </r>
       <r>   -2.0268    1.0000 </r>
       <r>   -2.0079    1.0000 </r>
       <r>   -1.9848    1.0000 </r>
       <r>   -1.9693    1.0000 </r>
       <r>   -1.9653    1.0000 </r>
       <r>   -1.9623    1.0000 </r>
       <r>   -1.9483    1.0000 </r>
       <r>   -1.9317    1.0000 </r>
       <r>   -1.9296    1.0000 </r>
       <r>   -1.9215    1.0000 </r>
       <r>   -1.9160    1.0000 </r>
       <r>   -1.9078    1.0000 </r>
       <r>   -1.9063    1.0000 </r>
       <r>   -1.9009    1.0000 </r>
       <r>   -1.8724    1.0000 </r>
       <r>   -1.8666    1.0000 </r>
       <r>   -1.8554    1.0000 </r>
       <r>   -1.8528    1.0000 </r>
       <r>   -1.8462    1.0000 </r>
       <r>   -1.8381    1.0000 </r>
       <r>   -1.8325    1.0000 </r>
       <r>   -1.8245    1.0000 </r>
       <r>   -1.8019    1.0000 </r>
       <r>   -1.7780    1.0000 </r>
       <r>   -1.7712    1.0000 </r>
       <r>   -1.7682    1.0000 </r>
       <r>   -1.7674    1.0000 </r>
       <r>   -1.7580    1.0000 </r>
       <r>   -1.7571    1.0000 </r>
       <r>   -1.7541    1.0000 </r>
       <r>   -1.7493    1.0000 </r>
       <r>   -1.7457    1.0000 </r>
       <r>   -1.7457    1.0000 </r>
       <r>   -1.7406    1.0000 </r>
       <r>   -1.7273    1.0000 </r>
       <r>   -1.7165    1.0000 </r>
       <r>   -1.7059    1.0000 </r>
       <r>   -1.7039    1.0000 </r>
       <r>   -1.6928    1.0000 </r>
       <r>   -1.6877    1.0000 </r>
       <r>   -1.6787    1.0000 </r>
       <r>   -1.6449    1.0000 </r>
       <r>   -1.6374    1.0000 </r>
       <r>   -1.6370    1.0000 </r>
       <r>   -1.6356    1.0000 </r>
       <r>   -1.6253    1.0000 </r>
       <r>   -1.6203    1.0000 </r>
       <r>   -1.6118    1.0000 </r>
       <r>   -1.6101    1.0000 </r>
       <r>   -1.5974    1.0000 </r>
       <r>   -1.5915    1.0000 </r>
       <r>   -1.5858    1.0000 </r>
       <r>   -1.5799    1.0000 </r>
       <r>   -1.5796    1.0000 </r>
       <r>   -1.5785    1.0000 </r>
       <r>   -1.5629    1.0000 </r>
       <r>   -1.5581    1.0000 </r>
       <r>   -1.5535    1.0000 </r>
       <r>   -1.5443    1.0000 </r>
       <r>   -1.5395    1.0000 </r>
       <r>   -1.5349    1.0000 </r>
       <r>   -1.5168    1.0000 </r>
       <r>   -1.5137    1.0000 </r>
       <r>   -1.4992    1.0000 </r>
       <r>   -1.4822    1.0000 </r>
       <r>   -1.4778    1.0000 </r>
       <r>   -1.4768    1.0000 </r>
       <r>   -1.4649    1.0000 </r>
       <r>   -1.4559    1.0000 </r>
       <r>   -1.4379    1.0000 </r>
       <r>   -1.4346    1.0000 </r>
       <r>   -1.4218    1.0000 </r>
       <r>   -1.3812    1.0000 </r>
       <r>   -1.2922    1.0000 </r>
       <r>   -1.1353    1.0000 </r>
       <r>   -1.1157    1.0000 </r>
       <r>   -1.0786    1.0000 </r>
       <r>   -0.8264    1.0000 </r>
       <r>   -0.8206    1.0000 </r>
       <r>   -0.4939    1.0000 </r>
       <r>   -0.3883    1.0000 </r>
       <r>   -0.3230    1.0000 </r>
       <r>   -0.2683    0.9994 </r>
       <r>   -0.2296    0.9964 </r>
       <r>   -0.1894    0.9830 </r>
       <r>   -0.0283    0.4370 </r>
       <r>   -0.0283    0.4367 </r>
       <r>    0.0146    0.2222 </r>
       <r>    0.1872    0.0007 </r>
       <r>    0.2821    0.0000 </r>
       <r>    0.2966    0.0000 </r>
       <r>    0.3478    0.0000 </r>
       <r>    0.4233    0.0000 </r>
       <r>    0.4286    0.0000 </r>
       <r>    0.8291    0.0000 </r>
       <r>    0.9466    0.0000 </r>
       <r>    0.9872    0.0000 </r>
       <r>    1.0626    0.0000 </r>
       <r>    1.3720    0.0000 </r>
       <r>    1.3923    0.0000 </r>
       <r>    1.5093    0.0000 </r>
       <r>    1.5312    0.0000 </r>
       <r>    1.6187    0.0000 </r>
       <r>    1.8074    0.0000 </r>
       <r>    2.0628    0.0000 </r>
       <r>    2.1522    0.0000 </r>
       <r>    2.2552    0.0000 </r>
       <r>    2.6160    0.0000 </r>
       <r>    2.6844    0.0000 </r>
       <r>    2.8235    0.0000 </r>
       <r>    3.0396    0.0000 </r>
       <r>    3.1105    0.0000 </r>
       <r>    3.2265    0.0000 </r>
       <r>    3.2753    0.0000 </r>
       <r>    3.2968    0.0000 </r>
       <r>    3.4686    0.0000 </r>
       <r>    3.5206    0.0000 </r>
       <r>    3.5997    0.0000 </r>
       <r>    3.7422    0.0000 </r>
       <r>    3.8402    0.0000 </r>
       <r>    4.0361    0.0000 </r>
       <r>    4.0817    0.0000 </r>
       <r>    4.0980    0.0000 </r>
       <r>    4.1250    0.0000 </r>
       <r>    4.1306    0.0000 </r>
       <r>    4.2338    0.0000 </r>
       <r>    4.5961    0.0000 </r>
       <r>    4.6584    0.0000 </r>
       <r>    4.7227    0.0000 </r>
       <r>    4.7505    0.0000 </r>
       <r>    4.7771    0.0000 </r>
       <r>    4.8839    0.0000 </r>
       <r>    4.9234    0.0000 </r>
       <r>    4.9274    0.0000 </r>
       <r>    4.9998    0.0000 </r>
       <r>    5.1238    0.0000 </r>
       <r>    5.4375    0.0000 </r>
       <r>    5.4779    0.0000 </r>
       <r>    5.5960    0.0000 </r>
       <r>    5.6889    0.0000 </r>
       <r>    5.7991    0.0000 </r>
       <r>    5.8134    0.0000 </r>
      </set>
      <set comment="kpoint 2">
       <r>   -8.6959    1.0000 </r>
       <r>   -8.3720    1.0000 </r>
       <r>   -7.9397    1.0000 </r>
       <r>   -7.3590    1.0000 </r>
       <r>   -7.0981    1.0000 </r>
       <r>   -6.9584    1.0000 </r>
       <r>   -6.5340    1.0000 </r>
       <r>   -6.2670    1.0000 </r>
       <r>   -5.7022    1.0000 </r>
       <r>   -5.6942    1.0000 </r>
       <r>   -5.5583    1.0000 </r>
       <r>   -5.4654    1.0000 </r>
       <r>   -5.2321    1.0000 </r>
       <r>   -5.1669    1.0000 </r>
       <r>   -4.8878    1.0000 </r>
       <r>   -4.7660    1.0000 </r>
       <r>   -4.7102    1.0000 </r>
       <r>   -4.6785    1.0000 </r>
       <r>   -4.6611    1.0000 </r>
       <r>   -4.6307    1.0000 </r>
       <r>   -4.6263    1.0000 </r>
       <r>   -4.5769    1.0000 </r>
       <r>   -4.4885    1.0000 </r>
       <r>   -4.4555    1.0000 </r>
       <r>   -4.4080    1.0000 </r>
       <r>   -4.3922    1.0000 </r>
       <r>   -4.3631    1.0000 </r>
       <r>   -4.3412    1.0000 </r>
       <r>   -4.3201    1.0000 </r>
       <r>   -4.2634    1.0000 </r>
       <r>   -4.2065    1.0000 </r>
       <r>   -4.1853    1.0000 </r>
       <r>   -4.1696    1.0000 </r>
       <r>   -4.1678    1.0000 </r>
       <r>   -4.1385    1.0000 </r>
       <r>   -4.0826    1.0000 </r>
       <r>   -4.0815    1.0000 </r>
       <r>   -4.0743    1.0000 </r>
       <r>   -4.0683    1.0000 </r>
       <r>   -4.0615    1.0000 </r>
       <r>   -4.0435    1.0000 </r>
       <r>   -4.0421    1.0000 </r>
       <r>   -4.0153    1.0000 </r>
       <r>   -4.0092    1.0000 </r>
       <r>   -4.0088    1.0000 </r>
       <r>   -3.9975    1.0000 </r>
       <r>   -3.9906    1.0000 </r>
       <r>   -3.9739    1.0000 </r>
       <r>   -3.9359    1.0000 </r>
       <r>   -3.9183    1.0000 </r>
       <r>   -3.8869    1.0000 </r>
       <r>   -3.8565    1.0000 </r>
       <r>   -3.7661    1.0000 </r>
       <r>   -3.7537    1.0000 </r>
       <r>   -3.7481    1.0000 </r>
       <r>   -3.7265    1.0000 </r>
       <r>   -3.7172    1.0000 </r>
       <r>   -3.6983    1.0000 </r>
       <r>   -3.6764    1.0000 </r>
       <r>   -3.6620    1.0000 </r>
       <r>   -3.5822    1.0000 </r>
       <r>   -3.5746    1.0000 </r>
       <r>   -3.5718    1.0000 </r>
       <r>   -3.5603    1.0000 </r>
       <r>   -3.5491    1.0000 </r>
       <r>   -3.5143    1.0000 </r>
       <r>   -3.4693    1.0000 </r>
       <r>   -3.4585    1.0000 </r>
       <r>   -3.4114    1.0000 </r>
       <r>   -3.3559    1.0000 </r>
       <r>   -3.3509    1.0000 </r>
       <r>   -3.3026    1.0000 </r>
       <r>   -3.3018    1.0000 </r>
       <r>   -3.2741    1.0000 </r>
       <r>   -3.2677    1.0000 </r>
       <r>   -3.2507    1.0000 </r>
       <r>   -3.2431    1.0000 </r>
       <r>   -3.2178    1.0000 </r>
       <r>   -3.2087    1.0000 </r>
       <r>   -3.1892    1.0000 </r>
       <r>   -3.1886    1.0000 </r>
       <r>   -3.1761    1.0000 </r>
       <r>   -3.1750    1.0000 </r>
       <r>   -3.1613    1.0000 </r>
       <r>   -3.1435    1.0000 </r>
       <r>   -3.1246    1.0000 </r>
       <r>   -3.0875    1.0000 </r>
       <r>   -3.0674    1.0000 </r>
       <r>   -3.0647    1.0000 </r>
       <r>   -3.0615    1.0000 </r>
       <r>   -3.0388    1.0000 </r>
       <r>   -2.9998    1.0000 </r>
       <r>   -2.9810    1.0000 </r>
       <r>   -2.9614    1.0000 </r>
       <r>   -2.9536    1.0000 </r>
       <r>   -2.9473    1.0000 </r>
       <r>   -2.9435    1.0000 </r>
       <r>   -2.9381    1.0000 </r>
       <r>   -2.8993    1.0000 </r>
       <r>   -2.8976    1.0000 </r>
       <r>   -2.8903    1.0000 </r>
       <r>   -2.8738    1.0000 </r>
       <r>   -2.8519    1.0000 </r>
       <r>   -2.8367    1.0000 </r>
       <r>   -2.8157    1.0000 </r>
       <r>   -2.7983    1.0000 </r>
       <r>   -2.7979    1.0000 </r>
       <r>   -2.7860    1.0000 </r>
       <r>   -2.7774    1.0000 </r>
       <r>   -2.7763    1.0000 </r>
       <r>   -2.7683    1.0000 </r>
       <r>   -2.7597    1.0000 </r>
       <r>   -2.7585    1.0000 </r>
       <r>   -2.7551    1.0000 </r>
       <r>   -2.7540    1.0000 </r>
       <r>   -2.7448    1.0000 </r>
       <r>   -2.7321    1.0000 </r>
       <r>   -2.7208    1.0000 </r>
       <r>   -2.7156    1.0000 </r>
       <r>   -2.7057    1.0000 </r>
       <r>   -2.7055    1.0000 </r>
       <r>   -2.6956    1.0000 </r>
       <r>   -2.6901    1.0000 </r>
       <r>   -2.6878    1.0000 </r>
       <r>   -2.6672    1.0000 </r>
       <r>   -2.6489    1.0000 </r>
       <r>   -2.6353    1.0000 </r>
       <r>   -2.6314    1.0000 </r>
       <r>   -2.6247    1.0000 </r>
       <r>   -2.6212    1.0000 </r>
       <r>   -2.6072    1.0000 </r>
       <r>   -2.6013    1.0000 </r>
       <r>   -2.5928    1.0000 </r>
       <r>   -2.5844    1.0000 </r>
       <r>   -2.5420    1.0000 </r>
       <r>   -2.5316    1.0000 </r>
       <r>   -2.5315    1.0000 </r>
       <r>   -2.5294    1.0000 </r>
       <r>   -2.5110    1.0000 </r>
       <r>   -2.5058    1.0000 </r>
       <r>   -2.5055    1.0000 </r>
       <r>   -2.4807    1.0000 </r>
       <r>   -2.4551    1.0000 </r>
       <r>   -2.4471    1.0000 </r>
       <r>   -2.4221    1.0000 </r>
       <r>   -2.3798    1.0000 </r>
       <r>   -2.3583    1.0000 </r>
       <r>   -2.3497    1.0000 </r>
       <r>   -2.3347    1.0000 </r>
       <r>   -2.3187    1.0000 </r>
       <r>   -2.3155    1.0000 </r>
       <r>   -2.3112    1.0000 </r>
       <r>   -2.2975    1.0000 </r>
       <r>   -2.2920    1.0000 </r>
       <r>   -2.2918    1.0000 </r>
       <r>   -2.2746    1.0000 </r>
       <r>   -2.2736    1.0000 </r>
       <r>   -2.2722    1.0000 </r>
       <r>   -2.2719    1.0000 </r>
       <r>   -2.2606    1.0000 </r>
       <r>   -2.2552    1.0000 </r>
       <r>   -2.2417    1.0000 </r>
       <r>   -2.2404    1.0000 </r>
       <r>   -2.2387    1.0000 </r>
       <r>   -2.1919    1.0000 </r>
       <r>   -2.1744    1.0000 </r>
       <r>   -2.1735    1.0000 </r>
       <r>   -2.1458    1.0000 </r>
       <r>   -2.1388    1.0000 </r>
       <r>   -2.1203    1.0000 </r>
       <r>   -2.1092    1.0000 </r>
       <r>   -2.0969    1.0000 </r>
       <r>   -2.0830    1.0000 </r>
       <r>   -2.0475    1.0000 </r>
       <r>   -2.0464    1.0000 </r>
       <r>   -2.0356    1.0000 </r>
       <r>   -2.0262    1.0000 </r>
       <r>   -2.0220    1.0000 </r>
       <r>   -2.0159    1.0000 </r>
       <r>   -2.0008    1.0000 </r>
       <r>   -1.9844    1.0000 </r>
       <r>   -1.9837    1.0000 </r>
       <r>   -1.9794    1.0000 </r>
       <r>   -1.9783    1.0000 </r>
       <r>   -1.9613    1.0000 </r>
       <r>   -1.9609    1.0000 </r>
       <r>   -1.9505    1.0000 </r>
       <r>   -1.9479    1.0000 </r>
       <r>   -1.9255    1.0000 </r>
       <r>   -1.9087    1.0000 </r>
       <r>   -1.9024    1.0000 </r>
       <r>   -1.9019    1.0000 </r>
       <r>   -1.8926    1.0000 </r>
       <r>   -1.8784    1.0000 </r>
       <r>   -1.8611    1.0000 </r>
       <r>   -1.8533    1.0000 </r>
       <r>   -1.8418    1.0000 </r>
       <r>   -1.8329    1.0000 </r>
       <r>   -1.8225    1.0000 </r>
       <r>   -1.8180    1.0000 </r>
       <r>   -1.8117    1.0000 </r>
       <r>   -1.8002    1.0000 </r>
       <r>   -1.7995    1.0000 </r>
       <r>   -1.7900    1.0000 </r>
       <r>   -1.7760    1.0000 </r>
       <r>   -1.7757    1.0000 </r>
       <r>   -1.7458    1.0000 </r>
       <r>   -1.7389    1.0000 </r>
       <r>   -1.7338    1.0000 </r>
       <r>   -1.7239    1.0000 </r>
       <r>   -1.7111    1.0000 </r>
       <r>   -1.6892    1.0000 </r>
       <r>   -1.6851    1.0000 </r>
       <r>   -1.6783    1.0000 </r>
       <r>   -1.6736    1.0000 </r>
       <r>   -1.6704    1.0000 </r>
       <r>   -1.6608    1.0000 </r>
       <r>   -1.6487    1.0000 </r>
       <r>   -1.6449    1.0000 </r>
       <r>   -1.6426    1.0000 </r>
       <r>   -1.6398    1.0000 </r>
       <r>   -1.6370    1.0000 </r>
       <r>   -1.6287    1.0000 </r>
       <r>   -1.6275    1.0000 </r>
       <r>   -1.6133    1.0000 </r>
       <r>   -1.6120    1.0000 </r>
       <r>   -1.5939    1.0000 </r>
       <r>   -1.5924    1.0000 </r>
       <r>   -1.5866    1.0000 </r>
       <r>   -1.5778    1.0000 </r>
       <r>   -1.5734    1.0000 </r>
       <r>   -1.5687    1.0000 </r>
       <r>   -1.5663    1.0000 </r>
       <r>   -1.5609    1.0000 </r>
       <r>   -1.5496    1.0000 </r>
       <r>   -1.5373    1.0000 </r>
       <r>   -1.5345    1.0000 </r>
       <r>   -1.5226    1.0000 </r>
       <r>   -1.5195    1.0000 </r>
       <r>   -1.5128    1.0000 </r>
       <r>   -1.5059    1.0000 </r>
       <r>   -1.5034    1.0000 </r>
       <r>   -1.4952    1.0000 </r>
       <r>   -1.4952    1.0000 </r>
       <r>   -1.4877    1.0000 </r>
       <r>   -1.4837    1.0000 </r>
       <r>   -1.4498    1.0000 </r>
       <r>   -1.4460    1.0000 </r>
       <r>   -1.4410    1.0000 </r>
       <r>   -1.2722    1.0000 </r>
       <r>   -1.2494    1.0000 </r>
       <r>   -1.2357    1.0000 </r>
       <r>   -1.2259    1.0000 </r>
       <r>   -1.2247    1.0000 </r>
       <r>   -1.1884    1.0000 </r>
       <r>   -1.1488    1.0000 </r>
       <r>   -0.8329    1.0000 </r>
       <r>   -0.8272    1.0000 </r>
       <r>   -0.7907    1.0000 </r>
       <r>   -0.5078    1.0000 </r>
       <r>   -0.1283    0.8953 </r>
       <r>   -0.0911    0.7672 </r>
       <r>   -0.0802    0.7174 </r>
       <r>   -0.0743    0.6886 </r>
       <r>    0.0290    0.1662 </r>
       <r>    0.1750    0.0012 </r>
       <r>    0.2416    0.0000 </r>
       <r>    0.2574    0.0000 </r>
       <r>    0.2624    0.0000 </r>
       <r>    0.6618    0.0000 </r>
       <r>    0.6619    0.0000 </r>
       <r>    0.8014    0.0000 </r>
       <r>    0.8275    0.0000 </r>
       <r>    0.8335    0.0000 </r>
       <r>    0.9751    0.0000 </r>
       <r>    1.2136    0.0000 </r>
       <r>    1.2630    0.0000 </r>
       <r>    1.3297    0.0000 </r>
       <r>    1.3778    0.0000 </r>
       <r>    1.4200    0.0000 </r>
       <r>    1.9085    0.0000 </r>
       <r>    1.9494    0.0000 </r>
       <r>    2.0445    0.0000 </r>
       <r>    2.1719    0.0000 </r>
       <r>    2.2567    0.0000 </r>
       <r>    2.3808    0.0000 </r>
       <r>    2.4048    0.0000 </r>
       <r>    2.5962    0.0000 </r>
       <r>    3.0050    0.0000 </r>
       <r>    3.0995    0.0000 </r>
       <r>    3.1537    0.0000 </r>
       <r>    3.3421    0.0000 </r>
       <r>    3.3531    0.0000 </r>
       <r>    3.4098    0.0000 </r>
       <r>    3.5456    0.0000 </r>
       <r>    3.5538    0.0000 </r>
       <r>    3.6036    0.0000 </r>
       <r>    3.8280    0.0000 </r>
       <r>    4.0091    0.0000 </r>
       <r>    4.0176    0.0000 </r>
       <r>    4.1418    0.0000 </r>
       <r>    4.2262    0.0000 </r>
       <r>    4.2606    0.0000 </r>
       <r>    4.2846    0.0000 </r>
       <r>    4.3063    0.0000 </r>
       <r>    4.3369    0.0000 </r>
       <r>    4.3389    0.0000 </r>
       <r>    4.5054    0.0000 </r>
       <r>    4.6013    0.0000 </r>
       <r>    4.7752    0.0000 </r>
       <r>    5.3502    0.0000 </r>
       <r>    5.4607    0.0000 </r>
       <r>    5.5139    0.0000 </r>
       <r>    5.5515    0.0000 </r>
       <r>    5.5848    0.0000 </r>
       <r>    5.6166    0.0000 </r>
       <r>    5.6384    0.0000 </r>
       <r>    5.7102    0.0000 </r>
       <r>    5.7314    0.0000 </r>
       <r>    5.8592    0.0000 </r>
      </set>
      <set comment="kpoint 3">
       <r>   -8.5825    1.0000 </r>
[...]
       <r>    -8.7519     1.3042     0.1130 </r>
       <r>    -8.6936     2.0955     0.2351 </r>
       <r>    -8.6354     2.7287     0.3940 </r>
       <r>    -8.5772     3.5139     0.5986 </r>
       <r>    -8.5189     3.6390     0.8106 </r>
       <r>    -8.4607     2.5375     0.9584 </r>
       <r>    -8.4024     1.5088     1.0462 </r>
       <r>    -8.3442     1.2860     1.1211 </r>
       <r>    -8.2859     1.6600     1.2178 </r>
       <r>    -8.2277     2.8544     1.3841 </r>
       <r>    -8.1695     4.4861     1.6453 </r>
       <r>    -8.1112     5.7509     1.9803 </r>
       <r>    -8.0530     6.0063     2.3301 </r>
       <r>    -7.9947     4.8967     2.6153 </r>
       <r>    -7.9365     3.5410     2.8215 </r>
       <r>    -7.8782     3.0798     3.0009 </r>
       <r>    -7.8200     4.0753     3.2383 </r>
       <r>    -7.7618     5.8576     3.5794 </r>
       <r>    -7.7035     6.1644     3.9385 </r>
       <r>    -7.6453     5.1336     4.2375 </r>
       <r>    -7.5870     4.5199     4.5007 </r>
       <r>    -7.5288     3.8101     4.7226 </r>
       <r>    -7.4706     3.3505     4.9177 </r>
       <r>    -7.4123     5.1052     5.2151 </r>
       <r>    -7.3541     7.5977     5.6576 </r>
       <r>    -7.2958     7.4633     6.0923 </r>
       <r>    -7.2376     5.4736     6.4111 </r>
       <r>    -7.1793     4.3435     6.6640 </r>
       <r>    -7.1211     4.2453     6.9113 </r>
       <r>    -7.0629     4.4751     7.1719 </r>
       <r>    -7.0046     5.7044     7.5042 </r>
       <r>    -6.9464     8.0606     7.9736 </r>
       <r>    -6.8881     9.3760     8.5197 </r>
       <r>    -6.8299     8.6472     9.0233 </r>
       <r>    -6.7716     7.1047     9.4371 </r>
       <r>    -6.7134     6.0766     9.7911 </r>
       <r>    -6.6552     7.0458    10.2014 </r>
       <r>    -6.5969     9.8809    10.7769 </r>
       <r>    -6.5387    11.5437    11.4492 </r>
       <r>    -6.4804    10.4013    12.0550 </r>
       <r>    -6.4222     8.5427    12.5526 </r>
       <r>    -6.3640     7.1426    12.9686 </r>
       <r>    -6.3057     6.1821    13.3286 </r>
       <r>    -6.2475     6.3342    13.6976 </r>
       <r>    -6.1892     7.6151    14.1411 </r>
       <r>    -6.1310    10.0595    14.7270 </r>
       <r>    -6.0727    12.9188    15.4794 </r>
       <r>    -6.0145    14.2115    16.3071 </r>
       <r>    -5.9563    13.8572    17.1142 </r>
       <r>    -5.8980    13.4343    17.8966 </r>
       <r>    -5.8398    13.6645    18.6925 </r>
       <r>    -5.7815    15.0060    19.5664 </r>
       <r>    -5.7233    17.1397    20.5647 </r>
       <r>    -5.6650    17.6854    21.5947 </r>
       <r>    -5.6068    15.3943    22.4913 </r>
       <r>    -5.5486    12.5536    23.2225 </r>
       <r>    -5.4903    10.6784    23.8444 </r>
       <r>    -5.4321     9.3608    24.3896 </r>
       <r>    -5.3738     7.9983    24.8554 </r>
       <r>    -5.3156     6.7454    25.2483 </r>
       <r>    -5.2573     7.2491    25.6705 </r>
       <r>    -5.1991    10.9481    26.3082 </r>
       <r>    -5.1409    16.9107    27.2931 </r>
       <r>    -5.0826    21.7169    28.5579 </r>
       <r>    -5.0244    21.9336    29.8354 </r>
       <r>    -4.9661    18.4220    30.9083 </r>
       <r>    -4.9079    15.4279    31.8069 </r>
       <r>    -4.8497    16.2839    32.7553 </r>
       <r>    -4.7914    20.4575    33.9468 </r>
       <r>    -4.7332    25.7581    35.4470 </r>
       <r>    -4.6749    31.9830    37.3097 </r>
       <r>    -4.6167    37.2015    39.4764 </r>
       <r>    -4.5584    37.8826    41.6828 </r>
       <r>    -4.5002    37.8766    43.8888 </r>
       <r>    -4.4420    43.0887    46.3984 </r>
       <r>    -4.3837    49.1973    49.2638 </r>
       <r>    -4.3255    50.5854    52.2100 </r>
       <r>    -4.2672    51.9318    55.2346 </r>
       <r>    -4.2090    57.7287    58.5968 </r>
       <r>    -4.1507    66.8198    62.4886 </r>
       <r>    -4.0925    78.0433    67.0340 </r>
       <r>    -4.0343    92.3449    72.4124 </r>
       <r>    -3.9760   107.6046    78.6795 </r>
       <r>    -3.9178   114.3278    85.3382 </r>
       <r>    -3.8595   108.3244    91.6472 </r>
       <r>    -3.8013   101.1285    97.5372 </r>
       <r>    -3.7431   101.7543   103.4636 </r>
       <r>    -3.6848   102.2451   109.4186 </r>
       <r>    -3.6266    98.6767   115.1657 </r>
       <r>    -3.5683    98.3121   120.8916 </r>
       <r>    -3.5101   101.3847   126.7965 </r>
       <r>    -3.4518   104.6733   132.8929 </r>
       <r>    -3.3936   110.9982   139.3577 </r>
       <r>    -3.3354   121.1353   146.4129 </r>
       <r>    -3.2771   130.6671   154.0232 </r>
       <r>    -3.2189   136.8301   161.9925 </r>
       <r>    -3.1606   139.7988   170.1347 </r>
       <r>    -3.1024   140.2126   178.3010 </r>
       <r>    -3.0441   137.9939   186.3380 </r>
       <r>    -2.9859   135.3515   194.2212 </r>
       <r>    -2.9277   137.7359   202.2433 </r>
       <r>    -2.8694   149.4558   210.9479 </r>
       <r>    -2.8112   171.4841   220.9355 </r>
       <r>    -2.7529   196.7637   232.3955 </r>
       <r>    -2.6947   208.6483   244.5476 </r>
       <r>    -2.6364   200.4770   256.2238 </r>
       <r>    -2.5782   184.4731   266.9679 </r>
       <r>    -2.5200   172.2623   277.0009 </r>
       <r>    -2.4617   164.9962   286.6106 </r>
       <r>    -2.4035   168.0674   296.3992 </r>
       <r>    -2.3452   188.6722   307.3879 </r>
       <r>    -2.2870   212.3701   319.7568 </r>
       <r>    -2.2288   213.6528   332.2004 </r>
       <r>    -2.1705   193.3033   343.4588 </r>
       <r>    -2.1123   178.3165   353.8444 </r>
       <r>    -2.0540   184.8879   364.6127 </r>
       <r>    -1.9958   204.6851   376.5340 </r>
       <r>    -1.9375   221.1079   389.4118 </r>
       <r>    -1.8793   227.1080   402.6391 </r>
       <r>    -1.8211   228.8516   415.9679 </r>
       <r>    -1.7628   235.0472   429.6576 </r>
       <r>    -1.7046   242.8490   443.8016 </r>
       <r>    -1.6463   244.0095   458.0133 </r>
       <r>    -1.5881   236.4601   471.7852 </r>
       <r>    -1.5298   215.6448   484.3449 </r>
       <r>    -1.4716   171.4043   494.3278 </r>
       <r>    -1.4134   112.0030   500.8511 </r>
       <r>    -1.3551    64.9011   504.6311 </r>
       <r>    -1.2969    40.7461   507.0042 </r>
       <r>    -1.2386    30.8247   508.7995 </r>
       <r>    -1.1804    27.2936   510.3892 </r>
       <r>    -1.1222    27.7173   512.0035 </r>
       <r>    -1.0639    29.7796   513.7379 </r>
       <r>    -1.0057    28.4849   515.3970 </r>
       <r>    -0.9474    23.0427   516.7390 </r>
       <r>    -0.8892    19.1398   517.8538 </r>
       <r>    -0.8309    20.1300   519.0262 </r>
       <r>    -0.7727    21.7673   520.2940 </r>
       <r>    -0.7145    19.1428   521.4089 </r>
       <r>    -0.6562    13.3317   522.1853 </r>
       <r>    -0.5980     8.8457   522.7005 </r>
       <r>    -0.5397     8.6965   523.2070 </r>
       <r>    -0.4815    11.2423   523.8618 </r>
       <r>    -0.4232    13.2925   524.6360 </r>
       <r>    -0.3650    15.8866   525.5613 </r>
       <r>    -0.3068    19.3162   526.6863 </r>
       <r>    -0.2485    20.4482   527.8772 </r>
       <r>    -0.1903    19.5970   529.0186 </r>
       <r>    -0.1320    19.6195   530.1613 </r>
       <r>    -0.0738    20.2301   531.3395 </r>
       <r>    -0.0156    18.5946   532.4225 </r>
       <r>     0.0427    14.3824   533.2602 </r>
       <r>     0.1009    10.0774   533.8471 </r>
       <r>     0.1592     9.4657   534.3984 </r>
       <r>     0.2174    14.2998   535.2313 </r>
       <r>     0.2757    20.8528   536.4458 </r>
       <r>     0.3339    23.2475   537.7998 </r>
       <r>     0.3921    21.0186   539.0239 </r>
       <r>     0.4504    17.5753   540.0476 </r>
       <r>     0.5086    14.1320   540.8706 </r>
       <r>     0.5669    10.5443   541.4848 </r>
       <r>     0.6251     8.6782   541.9902 </r>
       <r>     0.6834    10.9396   542.6274 </r>
       <r>     0.7416    15.2441   543.5152 </r>
       <r>     0.7998    17.1722   544.5153 </r>
       <r>     0.8581    15.8266   545.4371 </r>
       <r>     0.9163    13.2487   546.2088 </r>
       <r>     0.9746    11.2174   546.8621 </r>
       <r>     1.0328    10.4137   547.4686 </r>
       <r>     1.0911    11.2627   548.1246 </r>
       <r>     1.1493    12.9575   548.8792 </r>
       <r>     1.2075    13.3858   549.6589 </r>
       <r>     1.2658    12.8583   550.4077 </r>
       <r>     1.3240    14.6273   551.2597 </r>
       <r>     1.3823    18.0971   552.3137 </r>
       <r>     1.4405    18.9679   553.4184 </r>
       <r>     1.4987    18.7006   554.5076 </r>
       <r>     1.5570    20.7720   555.7174 </r>
       <r>     1.6152    21.5251   556.9711 </r>
       <r>     1.6735    17.5623   557.9939 </r>
       <r>     1.7317    12.3045   558.7106 </r>
       <r>     1.7900     9.1993   559.2464 </r>
       <r>     1.8482     8.1711   559.7223 </r>
       <r>     1.9064     8.6444   560.2257 </r>
       <r>     1.9647    11.0722   560.8706 </r>
       <r>     2.0229    15.1090   561.7506 </r>
       <r>     2.0812    17.8991   562.7931 </r>
       <r>     2.1394    17.4968   563.8121 </r>
       <r>     2.1977    15.0738   564.6900 </r>
       <r>     2.2559    12.7385   565.4320 </r>
       <r>     2.3141    11.9196   566.1262 </r>
       <r>     2.3724    12.4451   566.8510 </r>
       <r>     2.4306    12.9129   567.6031 </r>
       <r>     2.4889    12.5349   568.3332 </r>
       <r>     2.5471    12.3421   569.0520 </r>
       <r>     2.6053    11.9962   569.7507 </r>
       <r>     2.6636    11.8420   570.4404 </r>
       <r>     2.7218    13.3382   571.2172 </r>
       <r>     2.7801    14.9484   572.0879 </r>
       <r>     2.8383    14.2391   572.9172 </r>
       <r>     2.8966    12.4910   573.6447 </r>
       <r>     2.9548    12.1317   574.3513 </r>
       <r>     3.0130    12.5371   575.0814 </r>
       <r>     3.0713    12.0618   575.7839 </r>
       <r>     3.1295    11.0546   576.4278 </r>
       <r>     3.1878    10.8382   577.0590 </r>
       <r>     3.2460    12.5456   577.7897 </r>
       <r>     3.3043    17.1414   578.7881 </r>
       <r>     3.3625    22.2394   580.0833 </r>
       <r>     3.4207    23.3941   581.4459 </r>
       <r>     3.4790    21.5115   582.6987 </r>
       <r>     3.5372    19.6542   583.8434 </r>
       <r>     3.5955    17.8251   584.8816 </r>
       <r>     3.6537    17.4253   585.8965 </r>
       <r>     3.7120    19.2447   587.0174 </r>
       <r>     3.7702    19.3865   588.1465 </r>
       <r>     3.8284    16.6050   589.1136 </r>
       <r>     3.8867    14.4221   589.9536 </r>
       <r>     3.9449    15.1686   590.8370 </r>
       <r>     4.0032    17.5112   591.8569 </r>
       <r>     4.0614    18.9722   592.9619 </r>
       <r>     4.1196    20.3396   594.1465 </r>
       <r>     4.1779    23.3958   595.5091 </r>
       <r>     4.2361    26.7702   597.0683 </r>
       <r>     4.2944    26.8093   598.6297 </r>
       <r>     4.3526    22.5579   599.9436 </r>
       <r>     4.4109    19.1538   601.0591 </r>
       <r>     4.4691    19.8134   602.2131 </r>
       <r>     4.5273    20.4417   603.4037 </r>
       <r>     4.5856    18.8421   604.5011 </r>
       <r>     4.6438    17.2810   605.5076 </r>
       <r>     4.7021    17.0436   606.5002 </r>
       <r>     4.7603    18.4179   607.5729 </r>
       <r>     4.8186    22.3292   608.8734 </r>
       <r>     4.8768    29.7013   610.6033 </r>
       <r>     4.9350    36.3707   612.7216 </r>
       <r>     4.9933    34.9232   614.7556 </r>
       <r>     5.0515    26.2546   616.2847 </r>
       <r>     5.1098    17.1557   617.2839 </r>
       <r>     5.1680    11.7035   617.9655 </r>
       <r>     5.2262    10.8298   618.5963 </r>
       <r>     5.2845    12.5236   619.3257 </r>
       <r>     5.3427    14.9816   620.1983 </r>
       <r>     5.4010    18.4896   621.2751 </r>
       <r>     5.4592    21.5529   622.5304 </r>
       <r>     5.5175    22.2643   623.8271 </r>
       <r>     5.5757    21.5118   625.0800 </r>
       <r>     5.6339    22.1162   626.3681 </r>
       <r>     5.6922    24.8376   627.8147 </r>
       <r>     5.7504    27.0270   629.3888 </r>
       <r>     5.8087    25.9886   630.9025 </r>
       <r>     5.8669    22.9759   632.2407 </r>
       <r>     5.9252    20.9776   633.4624 </r>
       <r>     5.9834    19.6812   634.6087 </r>
       <r>     6.0416    17.3741   635.6206 </r>
       <r>     6.0999    14.3841   636.4584 </r>
       <r>     6.1581    12.6638   637.1959 </r>
       <r>     6.2164    12.2553   637.9097 </r>
       <r>     6.2746    10.2589   638.5072 </r>
       <r>     6.3329     5.9712   638.8550 </r>
       <r>     6.3911     2.5310   639.0024 </r>
       <r>     6.4493     1.8098   639.1078 </r>
       <r>     6.5076     2.5828   639.2582 </r>
       <r>     6.5658     3.0722   639.4372 </r>
       <r>     6.6241     2.8096   639.6008 </r>
       <r>     6.6823     2.4108   639.7412 </r>
       <r>     6.7405     2.1590   639.8670 </r>
       <r>     6.7988     1.5019   639.9544 </r>
       <r>     6.8570     0.6230   639.9907 </r>
       <r>     6.9153     0.1410   639.9989 </r>
       <r>     6.9735     0.0170   639.9999 </r>
       <r>     7.0318     0.0011   640.0000 </r>
       <r>     7.0900     0.0000   640.0000 </r>
       <r>     7.1482     0.0000   640.0000 </r>
       <r>     7.2065     0.0000   640.0000 </r>
       <r>     7.2647     0.0000   640.0000 </r>
       <r>     7.3230     0.0000   640.0000 </r>
       <r>     7.3812     0.0000   640.0000 </r>
       <r>     7.4395     0.0000   640.0000 </r>
       <r>     7.4977     0.0000   640.0000 </r>
       <r>     7.5559     0.0000   640.0000 </r>
       <r>     7.6142     0.0000   640.0000 </r>
       <r>     7.6724     0.0000   640.0000 </r>
       <r>     7.7307     0.0000   640.0000 </r>
      </set>
     </set>
    </array>
   </total>
  </dos>
 </calculation>
 <structure name="finalpos" >
  <crystal>
   <varray name="basis" >
    <v>      15.33600000       0.00000000       0.00000000 </v>
    <v>       0.00000000       5.11200000       0.00000000 </v>
    <v>       0.00000000       0.00000000      20.50000000 </v>
   </varray>
   <i name="volume">   1607.15145600 </i>
   <varray name="rec_basis" >
    <v>       0.06520605       0.00000000       0.00000000 </v>
    <v>       0.00000000       0.19561815       0.00000000 </v>
    <v>       0.00000000       0.00000000       0.04878049 </v>
   </varray>
  </crystal>
  <varray name="positions" >
   <v>       0.08333333       0.30868544       0.45401780 </v>
   <v>       0.25000000       0.30868544       0.45401780 </v>
   <v>       0.41666667       0.30868544       0.45401780 </v>
   <v>       0.58333333       0.30868544       0.45401780 </v>
   <v>       0.75000000       0.30868544       0.45401780 </v>
   <v>       0.91666667       0.30868544       0.45401780 </v>
   <v>       0.08333333       0.80868545       0.45401780 </v>
   <v>       0.25000000       0.80868545       0.45401780 </v>
   <v>       0.41666667       0.80868545       0.45401780 </v>
   <v>       0.58333333       0.80868545       0.45401780 </v>
   <v>       0.75000000       0.80868545       0.45401780 </v>
   <v>       0.91666667       0.80868545       0.45401780 </v>
   <v>       0.00000000       0.05868545       0.54218194 </v>
   <v>       0.16666667       0.05868545       0.54218194 </v>
   <v>       0.33333333       0.05868545       0.54218194 </v>
   <v>       0.50000000       0.05868545       0.54218194 </v>
   <v>       0.66666667       0.05868545       0.54218194 </v>
   <v>       0.83333333       0.05868545       0.54218194 </v>
   <v>       0.00000000       0.55868546       0.54218194 </v>
   <v>       0.16666667       0.55868546       0.54218194 </v>
   <v>       0.33333333       0.55868546       0.54218194 </v>
   <v>       0.50000000       0.55868546       0.54218194 </v>
   <v>       0.66666667       0.55868546       0.54218194 </v>
   <v>       0.83333333       0.55868546       0.54218194 </v>
   <v>       0.08457947       0.30914522       0.63447144 </v>
   <v>       0.25432145       0.30889088       0.63649075 </v>
   <v>       0.41912143       0.30830269       0.63118685 </v>
   <v>       0.58132327       0.30871628       0.63160630 </v>
   <v>       0.74584358       0.30884295       0.63689187 </v>
   <v>       0.91545731       0.30896623       0.63440848 </v>
   <v>       0.08457977       0.80914568       0.63447145 </v>
   <v>       0.25432196       0.80889127       0.63649078 </v>
   <v>       0.41912224       0.80830261       0.63118688 </v>
   <v>       0.58132425       0.80871664       0.63160600 </v>
   <v>       0.74584422       0.80884375       0.63689177 </v>
   <v>       0.91545762       0.80896681       0.63440849 </v>
   <v>       0.00072760       0.05870912       0.72254756 </v>
   <v>       0.17111314       0.05916198       0.72300383 </v>
   <v>       0.34506149       0.05889436       0.72538481 </v>
   <v>       0.49772274       0.31023490       0.74694373 </v>
   <v>       0.65251547       0.05970512       0.72826724 </v>
   <v>       0.83076714       0.05846006       0.72281104 </v>
   <v>       0.00072709       0.55870907       0.72254706 </v>
   <v>       0.17111286       0.55916209       0.72300352 </v>
   <v>       0.34506081       0.55889445       0.72538471 </v>
   <v>       0.49772278       0.81023446       0.74694333 </v>
   <v>       0.65251474       0.55970557       0.72826703 </v>
   <v>       0.83076627       0.55845993       0.72281050 </v>
   <v>       0.43512494       0.06040119       0.77856159 </v>
   <v>       0.43512411       0.56040216       0.77856132 </v>
   <v>       0.60895952       0.80998309       0.77355288 </v>
   <v>       0.60896041       0.30998292       0.77355282 </v>
  </varray>
  <varray name="selective"  type="logical" >
   <v type="logical" >  F  F  F </v>
   <v type="logical" >  F  F  F </v>
   <v type="logical" >  F  F  F </v>
   <v type="logical" >  F  F  F </v>
   <v type="logical" >  F  F  F </v>
   <v type="logical" >  F  F  F </v>
   <v type="logical" >  F  F  F </v>
   <v type="logical" >  F  F  F </v>
   <v type="logical" >  F  F  F </v>
   <v type="logical" >  F  F  F </v>
   <v type="logical" >  F  F  F </v>
   <v type="logical" >  F  F  F </v>
   <v type="logical" >  F  F  F </v>
   <v type="logical" >  F  F  F </v>
   <v type="logical" >  F  F  F </v>
   <v type="logical" >  F  F  F </v>
   <v type="logical" >  F  F  F </v>
   <v type="logical" >  F  F  F </v>
   <v type="logical" >  F  F  F </v>
   <v type="logical" >  F  F  F </v>
   <v type="logical" >  F  F  F </v>
   <v type="logical" >  F  F  F </v>
   <v type="logical" >  F  F  F </v>
   <v type="logical" >  F  F  F </v>
   <v type="logical" >  T  T  T </v>
   <v type="logical" >  T  T  T </v>
   <v type="logical" >  T  T  T </v>
   <v type="logical" >  T  T  T </v>
   <v type="logical" >  T  T  T </v>
   <v type="logical" >  T  T  T </v>
   <v type="logical" >  T  T  T </v>
   <v type="logical" >  T  T  T </v>
   <v type="logical" >  T  T  T </v>
   <v type="logical" >  T  T  T </v>
   <v type="logical" >  T  T  T </v>
   <v type="logical" >  T  T  T </v>
   <v type="logical" >  T  T  T </v>
   <v type="logical" >  T  T  T </v>
   <v type="logical" >  T  T  T </v>
   <v type="logical" >  T  T  T </v>
   <v type="logical" >  T  T  T </v>
   <v type="logical" >  T  T  T </v>
   <v type="logical" >  T  T  T </v>
   <v type="logical" >  T  T  T </v>
   <v type="logical" >  T  T  T </v>
   <v type="logical" >  T  T  T </v>
   <v type="logical" >  T  T  T </v>
   <v type="logical" >  T  T  T </v>
   <v type="logical" >  T  T  T </v>
   <v type="logical" >  T  T  T </v>
   <v type="logical" >  T  T  T </v>
   <v type="logical" >  T  T  T </v>
  </varray>
  <nose>
   <v>      -3.00000000       0.00000000       0.00010000       0.00010000 </v>
  </nose>
 </structure>
</modeling>
