opt-3                                   
           1
    15.336000    0.000000    0.000000
     0.000000    5.112000    0.000000
     0.000000    0.000000   20.500000
   Cu   H 
  48   4
Direct configuration=     1
   0.08333333  0.30868544  0.45401780
   0.25000000  0.30868544  0.45401780
   0.41666667  0.30868544  0.45401780
   0.58333333  0.30868544  0.45401780
   0.75000000  0.30868544  0.45401780
   0.91666667  0.30868544  0.45401780
   0.08333333  0.80868545  0.45401780
   0.25000000  0.80868545  0.45401780
   0.41666667  0.80868545  0.45401780
   0.58333333  0.80868545  0.45401780
   0.75000000  0.80868545  0.45401780
   0.91666667  0.80868545  0.45401780
   0.00000000  0.05868545  0.54218194
   0.16666667  0.05868545  0.54218194
   0.33333333  0.05868545  0.54218194
   0.50000000  0.05868545  0.54218194
   0.66666667  0.05868545  0.54218194
   0.83333333  0.05868545  0.54218194
   0.00000000  0.55868546  0.54218194
   0.16666667  0.55868546  0.54218194
   0.33333333  0.55868546  0.54218194
   0.50000000  0.55868546  0.54218194
   0.66666667  0.55868546  0.54218194
   0.83333333  0.55868546  0.54218194
   0.08458375  0.30915139  0.63446898
   0.25432525  0.30888180  0.63648953
   0.41912791  0.30828976  0.63117521
   0.58132364  0.30871802  0.63160065
   0.74584118  0.30884685  0.63688656
   0.91545917  0.30897598  0.63440447
   0.08458404  0.80915184  0.63446899
   0.25432576  0.80888219  0.63648955
   0.41912872  0.80828968  0.63117524
   0.58132462  0.80871838  0.63160036
   0.74584182  0.80884764  0.63688646
   0.91545948  0.80897656  0.63440448
   0.00072661  0.05872116  0.72253965
   0.17111182  0.05916629  0.72300195
   0.34508059  0.05887324  0.72536710
   0.49772651  0.31021672  0.74693751
   0.65250371  0.05969625  0.72825642
   0.83076264  0.05847303  0.72279967
   0.00072610  0.55872111  0.72253915
   0.17111154  0.55916639  0.72300163
   0.34507991  0.55887333  0.72536700
   0.49772655  0.81021628  0.74693711
   0.65250298  0.55969670  0.72825621
   0.83076177  0.55847290  0.72279913
   0.43513353  0.06038692  0.77855756
   0.43513270  0.56038789  0.77855729
   0.60896177  0.80997183  0.77355010
   0.60896266  0.30997166  0.77355004
Direct configuration=     2
   0.08333333  0.30868544  0.45401780
   0.25000000  0.30868544  0.45401780
   0.41666667  0.30868544  0.45401780
   0.58333333  0.30868544  0.45401780
   0.75000000  0.30868544  0.45401780
   0.91666667  0.30868544  0.45401780
   0.08333333  0.80868545  0.45401780
   0.25000000  0.80868545  0.45401780
   0.41666667  0.80868545  0.45401780
   0.58333333  0.80868545  0.45401780
   0.75000000  0.80868545  0.45401780
   0.91666667  0.80868545  0.45401780
   0.00000000  0.05868545  0.54218194
   0.16666667  0.05868545  0.54218194
   0.33333333  0.05868545  0.54218194
   0.50000000  0.05868545  0.54218194
   0.66666667  0.05868545  0.54218194
   0.83333333  0.05868545  0.54218194
   0.00000000  0.55868546  0.54218194
   0.16666667  0.55868546  0.54218194
   0.33333333  0.55868546  0.54218194
   0.50000000  0.55868546  0.54218194
   0.66666667  0.55868546  0.54218194
   0.83333333  0.55868546  0.54218194
   0.08457947  0.30914522  0.63447144
   0.25432145  0.30889088  0.63649075
   0.41912143  0.30830269  0.63118685
   0.58132327  0.30871628  0.63160630
   0.74584358  0.30884295  0.63689187
   0.91545731  0.30896623  0.63440848
   0.08457977  0.80914568  0.63447145
   0.25432196  0.80889127  0.63649078
   0.41912224  0.80830261  0.63118688
   0.58132425  0.80871664  0.63160600
   0.74584422  0.80884375  0.63689177
   0.91545762  0.80896681  0.63440849
   0.00072760  0.05870912  0.72254756
   0.17111314  0.05916198  0.72300383
   0.34506149  0.05889436  0.72538481
   0.49772274  0.31023490  0.74694373
   0.65251547  0.05970512  0.72826724
   0.83076714  0.05846006  0.72281104
   0.00072709  0.55870907  0.72254706
   0.17111286  0.55916209  0.72300352
   0.34506081  0.55889445  0.72538471
   0.49772278  0.81023446  0.74694333
   0.65251474  0.55970557  0.72826703
   0.83076627  0.55845993  0.72281050
   0.43512494  0.06040119  0.77856159
   0.43512411  0.56040216  0.77856132
   0.60895952  0.80998309  0.77355288
   0.60896041  0.30998292  0.77355282
